#     Step Nr.          Time[fs]        Kin.[a.u.]          Temp[K]            Pot.[a.u.]        Cons Qty[a.u.]        UsedTime[s]
         0            0.000000         2.412123729       564.840579357         2.446981655         4.859105384         0.000000000
         1            0.100000         2.440674945       571.526341349         2.418407460         4.859082405         0.409526030
         2            0.200000         2.467872626       577.895149719         2.391190328         4.859062954         0.062382314
         3            0.300000         2.493364046       583.864407754         2.365679810         4.859043857         0.075462675
         4            0.400000         2.516847937       589.363567671         2.342178573         4.859026510         0.075395873
         5            0.500000         2.538049427       594.328264099         2.320961778         4.859011205         0.076006213
         6            0.600000         2.556726297       598.701776973         2.302271837         4.858998134         0.072179278
         7            0.700000         2.572672303       602.435810542         2.286315181         4.858987484         0.075740077
         8            0.800000         2.585719809       605.491110238         2.273259560         4.858979368         0.078220144
         9            0.900000         2.595741896       607.837955662         2.263232003         4.858973898         0.061780253
        10            1.000000         2.602653908       609.456523149         2.256317219         4.858971127         0.081330551
        11            1.100000         2.606414451       610.337119410         2.252556641         4.858971092         0.076044720
        12            1.200000         2.607025801       610.480277600         2.251947958         4.858973758         0.075508516
        13            1.300000         2.604533698       609.896708558         2.254445402         4.858979100         0.075371878
        14            1.400000         2.599026621       608.607131071         2.259960406         4.858987028         0.062613813
        15            1.500000         2.590634525       606.641976157         2.268362915         4.858997439         0.075214049
        16            1.600000         2.579527013       604.040959784         2.279483158         4.859010171         0.062187156
        17            1.700000         2.565910915       600.852514352         2.293114134         4.859025049         0.079374731
        18            1.800000         2.550027409       597.133116333         2.309014459         4.859041869         0.076644218
        19            1.900000         2.532148756       592.946519750         2.326911648         4.859060404         0.073801743
        20            2.000000         2.512574599       588.362891544         2.346505790         4.859080389         0.070933498
        21            2.100000         2.491627856       583.457848609         2.367473696         4.859101552         0.061783588
        22            2.200000         2.469650301       578.311423301         2.389473303         4.859123604         0.062322773
        23            2.300000         2.446997954       573.006983519         2.412148307         4.859146260         0.079308890
        24            2.400000         2.424036278       567.630109192         2.435132911         4.859169189         0.081154736
        25            2.500000         2.401135231       562.267432056         2.458056844         4.859192075         0.076130336
        26            2.600000         2.378664186       557.005447431         2.480550421         4.859214607         0.094667733
        27            2.700000         2.356986942       551.929344934         2.502249549         4.859236491         0.039405450
        28            2.800000         2.336456875       547.121873939         2.522800548         4.859257423         0.037647448
        29            2.900000         2.317412132       542.662217285         2.541864985         4.859277117         0.081007482
        30            3.000000         2.300171029       538.624914169         2.559124281         4.859295310         0.076943461
        31            3.100000         2.285027729       535.078848038         2.574283999         4.859311728         0.080885343
        32            3.200000         2.272248165       532.086291687         2.587077995         4.859326160         0.084439002
        33            3.300000         2.262066404       529.702055864         2.597272000         4.859338404         0.040356264
        34            3.400000         2.254681432       527.972736576         2.604666848         4.859348280         0.071695937
        35            3.500000         2.250254374       526.936064324         2.609101273         4.859355647         0.080045719
        36            3.600000         2.248906228       526.620372572         2.610454173         4.859360401         0.075841848
        37            3.700000         2.250716129       527.044192102         2.608646327         4.859362455         0.076714510
        38            3.800000         2.255720175       528.215976271         2.603641625         4.859361800         0.078767780
        39            3.900000         2.263910784       530.133949381         2.595447628         4.859358413         0.081307350
        40            4.000000         2.275236653       532.786097779         2.584115683         4.859352335         0.097242860
        41            4.100000         2.289603275       536.150291511         2.569740356         4.859343632         0.055140080
        42            4.200000         2.306874002       540.194531473         2.552458402         4.859332403         0.039213128
        43            4.300000         2.326871662       544.877330120         2.532447124         4.859318786         0.081906347
        44            4.400000         2.349380761       550.148225939         2.509922179         4.859302940         0.078771548
        45            4.500000         2.374150119       555.948400340         2.485134939         4.859285058         0.080039473
        46            4.600000         2.400895922       562.211393754         2.458369452         4.859265374         0.074822759
        47            4.700000         2.429305299       568.863941757         2.429938824         4.859244123         0.079560433
        48            4.800000         2.459040234       575.826892228         2.400181342         4.859221576         0.065632852
        49            4.900000         2.489741746       583.016183330         2.369456267         4.859198013         0.041177757
        50            5.000000         2.521034405       590.343901872         2.338139315         4.859173720         0.039264863
        51            5.100000         2.552531025       597.719381408         2.306617978         4.859149003         0.042580504
        52            5.200000         2.583837512       605.050337762         2.275286664         4.859124176         0.039432332
        53            5.300000         2.614557876       612.244043627         2.244541679         4.859099556         0.055846531
        54            5.400000         2.644299412       619.208539615         2.214776067         4.859075479         0.092298117
        55            5.500000         2.672678061       625.853892264         2.186374262         4.859052323         0.062269412
        56            5.600000         2.699323988       632.093497927         2.159706484         4.859030472         0.075910803
        57            5.700000         2.723887490       637.845467570         2.135122836         4.859010325         0.040545190
        58            5.800000         2.746045146       643.034066845         2.112947200         4.858992346         0.039585754
        59            5.900000         2.765506183       647.591205857         2.093470819         4.858977002         0.055087799
        60            6.000000         2.782018802       651.457921862         2.076945774         4.858964576         0.067647435
        61            6.100000         2.795372020       654.584809338         2.063582026         4.858954046         0.041538300
        62            6.200000         2.804660106       656.759775749         2.054283902         4.858944008         0.084879564
        63            6.300000         2.811001739       658.244778882         2.047936923         4.858938662         0.063768104
        64            6.400000         2.813662339       658.867804569         2.045273253         4.858935592         0.038895831
        65            6.500000         2.816425734       659.514901267         2.042509207         4.858934940         0.086875806
        66            6.600000         2.811882818       658.451098775         2.047053587         4.858936405         0.081426464
        67            6.700000         2.803607500       656.513289722         2.055333192         4.858940692         0.187726865
        68            6.800000         2.791664623       653.716658133         2.067283139         4.858947762         0.050639499
        69            6.900000         2.776163319       650.086758998         2.082794228         4.858957546         0.062876182
        70            7.000000         2.757255833       645.659243391         2.101714083         4.858969916         0.038599994
        71            7.100000         2.735135790       640.479451937         2.123848946         4.858984736         0.038149545
        72            7.200000         2.710035883       634.601873666         2.148965965         4.859001847         0.054824209
        73            7.300000         2.682225054       628.089486161         2.176795964         4.859021018         0.083172051
        74            7.400000         2.652005255       621.012996352         2.207036769         4.859042023         0.092331327
        75            7.500000         2.619707761       613.449978316         2.239356851         4.859064611         0.038545806
        76            7.600000         2.585689149       605.483930664         2.273399369         4.859088518         0.035717998
        77            7.700000         2.550326951       597.203259164         2.308786492         4.859113443         0.037295105
        78            7.800000         2.514015039       588.700195602         2.345124048         4.859139087         0.078062108
        79            7.900000         2.477158817       580.069672344         2.382006322         4.859165139         0.066781472
        80            8.000000         2.440170238       571.408155417         2.419021035         4.859191272         0.038733630
        81            8.100000         2.403462790       562.812470384         2.455754402         4.859217192         0.054778349
        82            8.200000         2.367446451       554.378620307         2.491796125         4.859242576         0.080614809
        83            8.300000         2.332522668       546.200611133         2.526744435         4.859267103         0.074278908
        84            8.400000         2.299079463       538.369305160         2.560211018         4.859290482         0.080411097
        85            8.500000         2.267486680       530.971307362         2.591825761         4.859312441         0.066171873
        86            8.600000         2.238091524       524.087922063         2.621241172         4.859332696         0.039954862
        87            8.700000         2.211214335       517.794162519         2.648136688         4.859351023         0.067830736
        88            8.800000         2.187144720       512.157845005         2.672222471         4.859367191         0.076313321
        89            8.900000         2.166138068       507.238773366         2.693242953         4.859381021         0.076880569
        90            9.000000         2.148412467       503.088016662         2.710979873         4.859392340         0.082427043
        91            9.100000         2.134146148       499.747310578         2.725254870         4.859401017         0.053589737
        92            9.200000         2.123475356       497.248559862         2.735931602         4.859406958         0.037786430
        93            9.300000         2.116492783       495.613469381         2.742917309         4.859410092         0.082605690
        94            9.400000         2.113246571       494.853312386         2.746163826         4.859410396         0.074909821
        95            9.500000         2.113739803       494.968811210         2.745668068         4.859407871         0.079722058
        96            9.600000         2.117930594       495.950157766         2.741471961         4.859402555         0.081174666
        97            9.700000         2.125732735       497.777164205         2.733661794         4.859394529         0.039432870
        98            9.800000         2.137016888       500.419544322         2.722367010         4.859383899         0.053814191
        99            9.900000         2.151612356       503.837325904         2.707758446         4.859370801         0.062743520
       100           10.000000         2.169309326       507.981378165         2.690046081         4.859355406         0.072822312
       101           10.100000         2.189861615       512.794052930         2.669476310         4.859337925         0.074419804
       102           10.200000         2.212989820       518.209923157         2.646328753         4.859318574         0.075636849
       103           10.300000         2.238384911       524.156623852         2.620912677         4.859297588         0.036283107
       104           10.400000         2.265712219       530.555786524         2.593563048         4.859275267         0.036079120
       105           10.500000         2.294615691       537.324035580         2.564636163         4.859251854         0.075007912
       106           10.600000         2.324722404       544.374044209         2.534505283         4.859227687         0.060732435
       107           10.700000         2.355647281       551.615640126         2.503555758         4.859203039         0.071688123
       108           10.800000         2.386997973       558.956947967         2.472180256         4.859178229         0.077275133
       109           10.900000         2.418379815       566.305550321         2.440773753         4.859153568         0.049491532
       110           11.000000         2.449400797       573.569650986         2.409728577         4.859129374         0.035989344
       111           11.100000         2.479676440       580.659217517         2.379429495         4.859105935         0.046112768
       112           11.200000         2.508834543       587.487092686         2.350248980         4.859083523         0.073423216
       113           11.300000         2.536519741       593.970061625         2.322542650         4.859062391         0.079057828
       114           11.400000         2.562397417       600.029768032         2.296645288         4.859042705         0.063765295
       115           11.500000         2.586155422       605.593116664         2.272868564         4.859023986         0.061413649
       116           11.600000         2.607493579       610.589815843         2.251509387         4.859002965         0.075655151
       117           11.700000         2.626311726       614.996411171         2.232683100         4.858994825         0.065414621
       118           11.800000         2.642183668       618.713101679         2.216798483         4.858982151         0.034932084
       119           11.900000         2.655043553       621.724466459         2.203929789         4.858973342         0.046811044
       120           12.000000         2.664753637       623.998250978         2.194213735         4.858967372         0.059096539
       121           12.100000         2.671222545       625.513058017         2.187741575         4.858964120         0.035342336
       122           12.200000         2.674402544       626.257709830         2.184561018         4.858963562         0.035037702
       123           12.300000         2.674289254       626.231181044         2.184676444         4.858965698         0.036147267
       124           12.400000         2.670921348       625.442527343         2.188049126         4.858970474         0.075763956
       125           12.500000         2.664379794       623.910709113         2.194598028         4.858977821         0.034888981
       126           12.600000         2.654786539       621.664282168         2.204201062         4.858987601         0.035540072
       127           12.700000         2.642302793       618.740996659         2.216696907         4.858999699         0.036282247
       128           12.800000         2.627126753       615.187264027         2.231887182         4.859013935         0.061220326
       129           12.900000         2.609490813       611.057502923         2.249539297         4.859030110         0.070118899
       130           13.000000         2.589658374       606.413393594         2.269389626         4.859048000         0.074316185
       131           13.100000         2.567920313       601.323049910         2.291147047         4.859067361         0.034875907
       132           13.200000         2.544591047       595.860097942         2.314496890         4.859087937         0.034535805
       133           13.300000         2.520004322       590.102690097         2.339105111         4.859109433         0.034839392
       134           13.400000         2.494508810       584.132474000         2.364622784         4.859131594         0.060296675
       135           13.500000         2.468463449       578.033501273         2.390690632         4.859154081         0.046642216
       136           13.600000         2.442232672       571.891110155         2.416943945         4.859176617         0.034718717
       137           13.700000         2.416181624       565.790805810         2.443017279         4.859198903         0.033741308
       138           13.800000         2.390671317       559.817125295         2.468549322         4.859220639         0.034680966
       139           13.900000         2.366053820       554.052511643         2.493187699         4.859241519         0.074161349
       140           14.000000         2.342667667       548.576238551         2.516593613         4.859261280         0.033868141
       141           14.100000         2.320833420       543.463371193         2.538446242         4.859279662         0.033724289
       142           14.200000         2.300849486       538.783786611         2.558446940         4.859296425         0.034909807
       143           14.300000         2.282988171       534.601250162         2.576323169         4.859311340         0.061823387
       144           14.400000         2.267492103       530.972577342         2.591832102         4.859324205         0.057792537
       145           14.500000         2.254571068       527.946892965         2.604763791         4.859334859         0.071636684
       146           14.600000         2.244399227       525.564980080         2.614943923         4.859343150         0.062974516
       147           14.700000         2.237112886       523.858757161         2.622236085         4.859348972         0.062264610
       148           14.800000         2.232808752       522.850869513         2.626543497         4.859352249         0.191458629
       149           14.900000         2.231542642       522.554387781         2.627810290         4.859352932         0.061187200
       150           15.000000         2.233328767       522.972639954         2.626022254         4.859351020         0.083203379
       151           15.100000         2.238139605       524.099181019         2.621206931         4.859346535         0.074414192
       152           15.200000         2.245906288       525.917884653         2.613433247         4.859339535         0.033515392
       153           15.300000         2.256519531       528.403159443         2.602810588         4.859330119         0.033643693
       154           15.400000         2.269831067       531.520286147         2.589487336         4.859318403         0.059547592
       155           15.500000         2.285655663       535.225889656         2.573648882         4.859304545         0.069757704
       156           15.600000         2.303773600       539.468518537         2.555515127         4.859288726         0.072407397
       157           15.700000         2.323933565       544.189323812         2.535337586         4.859271151         0.061558248
       158           15.800000         2.345855977       549.322836558         2.513396080         4.859252057         0.061443921
       159           15.900000         2.369236643       554.797824807         2.489995061         4.859231704         0.034361953
       160           16.000000         2.393750847       560.538250553         2.465459502         4.859210349         0.047355425
       161           16.100000         2.419057635       566.464273539         2.440130645         4.859188279         0.061802551
       162           16.200000         2.444804314       572.493304764         2.414361475         4.859165789         0.068078393
       163           16.300000         2.470631140       578.541103745         2.388512042         4.859143182         0.073921911
       164           16.400000         2.496175993       584.522873758         2.362944751         4.859120744         0.060797449
       165           16.500000         2.521079234       590.354399337         2.338019535         4.859098769         0.049755795
       166           16.600000         2.544988474       595.953162239         2.314089080         4.859077554         0.033369197
       167           16.700000         2.567563157       601.239415633         2.291494237         4.859057394         0.059685431
       168           16.800000         2.588479075       606.137240303         2.270559458         4.859038533         0.073570007
       169           16.900000         2.607432671       610.575553371         2.251588564         4.859021236         0.033864308
       170           17.000000         2.624145098       614.489057813         2.234860641         4.859005739         0.033771789
       171           17.100000         2.638365934       617.819112931         2.220626311         4.858992245         0.058001911
       172           17.200000         2.649876492       620.514509644         2.209104451         4.858980943         0.072275469
       173           17.300000         2.658492770       622.532160586         2.200479207         4.858971978         0.060994269
       174           17.400000         2.664067949       623.837685327         2.194897525         4.858965475         0.033915726
       175           17.500000         2.666494347       624.405868482         2.192467187         4.858961534         0.043465225
       176           17.600000         2.665704985       624.221025730         2.193255227         4.858960213         0.058934487
       177           17.700000         2.661674567       623.277233377         2.197286970         4.858961537         0.058719283
       178           17.800000         2.654419871       621.578420536         2.204545622         4.858965493         0.034237148
       179           17.900000         2.643999727       619.138363258         2.214972319         4.858972046         0.034320107
       180           18.000000         2.630514412       615.980543080         2.228466712         4.858981124         0.034304470
       181           18.100000         2.614104461       612.137868507         2.244888153         4.858992613         0.034858111
       182           18.200000         2.594948979       607.652280388         2.264057421         4.859006400         0.034313424
       183           18.300000         2.573263528       602.574256181         2.285758775         4.859022303         0.047652069
       184           18.400000         2.549297443       596.962181928         2.309742693         4.859040135         0.072362257
       185           18.500000         2.523330763       590.881633853         2.335728907         4.859059670         0.059094515
       186           18.600000         2.495670795       584.404573021         2.363409880         4.859080676         0.047335651
       187           18.700000         2.466648287       577.608449739         2.392454593         4.859102880         0.033822469
       188           18.800000         2.436613345       570.575247431         2.422512669         4.859126014         0.047478583
       189           18.900000         2.405931003       563.390445143         2.453218789         4.859149792         0.066691669
       190           19.000000         2.374976699       556.141958446         2.484197236         4.859173935         0.058422618
       191           19.100000         2.344131633       548.919051599         2.515066497         4.859198130         0.059922665
       192           19.200000         2.313777941       541.811208499         2.545444138         4.859222079         0.074183781
       193           19.300000         2.284293899       534.907008987         2.574951590         4.859245489         0.047427436
       194           19.400000         2.256049238       528.293032066         2.603218825         4.859268063         0.034079224
       195           19.500000         2.229400501       522.052768550         2.629889026         4.859289528         0.058306905
       196           19.600000         2.204686567       516.265572400         2.654623037         4.859309604         0.058867995
       197           19.700000         2.182224392       511.005664774         2.677103662         4.859328054         0.071792165
       198           19.800000         2.162305014       506.341197266         2.697039623         4.859344637         0.061279176
       199           19.900000         2.145189877       502.333391201         2.714169278         4.859359155         0.060073268
       200           20.000000         2.131107559       499.035772445         2.728263865         4.859371425         0.071767790
