 DBCSR| Multiplication driver                                               XSMM
 DBCSR| Multrec recursion limit                                              512
 DBCSR| Multiplication stack size                                           1000
 DBCSR| Maximum elements for images                                    UNLIMITED
 DBCSR| Randmat seed                                                    12341313
 DBCSR| Multiplication size stacks                                             3


  **** **** ******  **  PROGRAM STARTED AT               2021-04-29 14:23:29.592
 ***** ** ***  *** **   PROGRAM STARTED ON               bulstake.phys.ucl.ac.uk
 **    ****   ******    PROGRAM STARTED BY                             sgiannini
 ***** **    ** ** **   PROGRAM PROCESS ID                                 12965
  **** **  *******  **  PROGRAM STARTED IN /scratch/sgiannini/REG_TEST_MERGING/3
                                           7-071a0540f1_code_extension_V3_ADJ/ru
                                           n-fssh-3NAP-3ANT-3FF-FE-CT

 CP2K| version string:                    CP2K version 4.0 (Development Version)
 CP2K| source code revision number:                                  git:1080fc1
 CP2K| cp2kflags: libint fftw3 libxc quip smm_dnn smm libxsmm libderiv_max_am1=5
 CP2K|             libint_max_am=6
 CP2K| is freely available from                            https://www.cp2k.org/
 CP2K| Program compiled at                          Thu 29 Apr 10:11:08 BST 2021
 CP2K| Program compiled on                               bulstake.phys.ucl.ac.uk
 CP2K| Program compiled for                                         local_hetero
 CP2K| Data directory path           /scratch/sgiannini/flavoured-cptk/cp2k/data
 CP2K| Input file name                                                   run.inp

 GLOBAL| Force Environment number                                              1
 GLOBAL| Basis set file name                                           POTENTIAL
 GLOBAL| MM Potential file name                                     MM_POTENTIAL
 GLOBAL| Coordinate file name                                       pos-init.xyz
 GLOBAL| Force Environment number                                              2
 GLOBAL| Basis set file name                                           POTENTIAL
 GLOBAL| MM Potential file name                                     MM_POTENTIAL
 GLOBAL| Coordinate file name                                       pos-init.xyz
 GLOBAL| Force Environment number                                              3
 GLOBAL| Basis set file name                                           POTENTIAL
 GLOBAL| MM Potential file name                                     MM_POTENTIAL
 GLOBAL| Coordinate file name                                       pos-init.xyz
 GLOBAL| Force Environment number                                              4
 GLOBAL| Basis set file name                                           POTENTIAL
 GLOBAL| MM Potential file name                                     MM_POTENTIAL
 GLOBAL| Coordinate file name                                       pos-init.xyz
 GLOBAL| Method name                                                        CP2K
 GLOBAL| Project name                                                        run
 GLOBAL| Preferred FFT library                                             FFTW3
 GLOBAL| Preferred diagonalization lib.                                       SL
 GLOBAL| Run type                                                             MD
 GLOBAL| All-to-all communication in single precision                          F
 GLOBAL| FFTs using library dependent lengths                                  F
 GLOBAL| Global print level                                                  LOW
 GLOBAL| Total number of message passing processes                             1
 GLOBAL| Number of threads for this process                                    1
 GLOBAL| This output is from process                                           0
 GLOBAL| CPU model name :  Intel(R) Xeon(R) CPU E5-2687W v4 @ 3.00GHz

 MEMORY| system memory details [Kb]
 MEMORY|                        rank 0           min           max       average
 MEMORY| MemTotal             65894336      65894336      65894336      65894336
 MEMORY| MemFree               6875700       6875700       6875700       6875700
 MEMORY| Buffers                  8744          8744          8744          8744
 MEMORY| Cached               40779116      40779116      40779116      40779116
 MEMORY| Slab                  3236700       3236700       3236700       3236700
 MEMORY| SReclaimable          2479316       2479316       2479316       2479316
 MEMORY| MemLikelyFree        50142876      50142876      50142876      50142876

 TOTAL NUMBER OF FORCE EVALS           4
 NOTE:n_subforce_eval           3
          ----------------------------------------------------------------------
 COLVARS| COLVAR INPUT INDEX:        1
 COLVARS| BOND          >>> POINTS:                                    1       2
 COLVARS| INFORMATION ON DEFINED GEOMETRICAL POINTS
 COLVARS|  POINT Nr.     1 OF TYPE: GEO_CENTER
 COLVARS|   ATOMS BUILDING THE GEOMETRICAL POINT
 COLVARS|   ATOM:         1
 COLVARS|   ATOM:         2
 COLVARS|   ATOM:         3
 COLVARS|   ATOM:        10
 COLVARS|   ATOM:        12
 COLVARS|   ATOM:         5
 COLVARS|  POINT Nr.     2 OF TYPE: FIX_POINT
 COLVARS|   XYZ POSITION OF FIXED POINT:       -0.000913   -0.004945    2.313156
          ----------------------------------------------------------------------
          ----------------------------------------------------------------------
 COLVARS| COLVAR INPUT INDEX:        2
 COLVARS| BOND          >>> POINTS:                                    1       2
 COLVARS| INFORMATION ON DEFINED GEOMETRICAL POINTS
 COLVARS|  POINT Nr.     1 OF TYPE: GEO_CENTER
 COLVARS|   ATOMS BUILDING THE GEOMETRICAL POINT
 COLVARS|   ATOM:         3
 COLVARS|   ATOM:         4
 COLVARS|   ATOM:        11
 COLVARS|   ATOM:        14
 COLVARS|   ATOM:        13
 COLVARS|   ATOM:        10
 COLVARS|  POINT Nr.     2 OF TYPE: FIX_POINT
 COLVARS|   XYZ POSITION OF FIXED POINT:        0.000913    0.004945   -2.313156
          ----------------------------------------------------------------------
          ----------------------------------------------------------------------
 COLVARS| COLVAR INPUT INDEX:        3
 COLVARS| BOND          >>> POINTS:                                    1       2
 COLVARS| INFORMATION ON DEFINED GEOMETRICAL POINTS
 COLVARS|  POINT Nr.     1 OF TYPE: GEO_CENTER
 COLVARS|   ATOMS BUILDING THE GEOMETRICAL POINT
 COLVARS|   ATOM:        19
 COLVARS|   ATOM:        20
 COLVARS|   ATOM:        21
 COLVARS|   ATOM:        28
 COLVARS|   ATOM:        30
 COLVARS|   ATOM:        23
 COLVARS|  POINT Nr.     2 OF TYPE: FIX_POINT
 COLVARS|   XYZ POSITION OF FIXED POINT:        9.447737   -0.004945    2.313156
          ----------------------------------------------------------------------
          ----------------------------------------------------------------------
 COLVARS| COLVAR INPUT INDEX:        4
 COLVARS| BOND          >>> POINTS:                                    1       2
 COLVARS| INFORMATION ON DEFINED GEOMETRICAL POINTS
 COLVARS|  POINT Nr.     1 OF TYPE: GEO_CENTER
 COLVARS|   ATOMS BUILDING THE GEOMETRICAL POINT
 COLVARS|   ATOM:        21
 COLVARS|   ATOM:        22
 COLVARS|   ATOM:        29
 COLVARS|   ATOM:        32
 COLVARS|   ATOM:        31
 COLVARS|   ATOM:        28
 COLVARS|  POINT Nr.     2 OF TYPE: FIX_POINT
 COLVARS|   XYZ POSITION OF FIXED POINT:        9.449563    0.004945   -2.313156
          ----------------------------------------------------------------------
          ----------------------------------------------------------------------
 COLVARS| COLVAR INPUT INDEX:        5
 COLVARS| BOND          >>> POINTS:                                    1       2
 COLVARS| INFORMATION ON DEFINED GEOMETRICAL POINTS
 COLVARS|  POINT Nr.     1 OF TYPE: GEO_CENTER
 COLVARS|   ATOMS BUILDING THE GEOMETRICAL POINT
 COLVARS|   ATOM:        37
 COLVARS|   ATOM:        38
 COLVARS|   ATOM:        39
 COLVARS|   ATOM:        46
 COLVARS|   ATOM:        48
 COLVARS|   ATOM:        41
 COLVARS|  POINT Nr.     2 OF TYPE: FIX_POINT
 COLVARS|   XYZ POSITION OF FIXED POINT:       18.896387   -0.004945    2.313156
          ----------------------------------------------------------------------
          ----------------------------------------------------------------------
 COLVARS| COLVAR INPUT INDEX:        6
 COLVARS| BOND          >>> POINTS:                                    1       2
 COLVARS| INFORMATION ON DEFINED GEOMETRICAL POINTS
 COLVARS|  POINT Nr.     1 OF TYPE: GEO_CENTER
 COLVARS|   ATOMS BUILDING THE GEOMETRICAL POINT
 COLVARS|   ATOM:        39
 COLVARS|   ATOM:        40
 COLVARS|   ATOM:        47
 COLVARS|   ATOM:        50
 COLVARS|   ATOM:        49
 COLVARS|   ATOM:        46
 COLVARS|  POINT Nr.     2 OF TYPE: FIX_POINT
 COLVARS|   XYZ POSITION OF FIXED POINT:       18.898213    0.004945   -2.313156
          ----------------------------------------------------------------------
          ----------------------------------------------------------------------
 COLVARS| COLVAR INPUT INDEX:        7
 COLVARS| BOND          >>> POINTS:                                    1       2
 COLVARS| INFORMATION ON DEFINED GEOMETRICAL POINTS
 COLVARS|  POINT Nr.     1 OF TYPE: GEO_CENTER
 COLVARS|   ATOMS BUILDING THE GEOMETRICAL POINT
 COLVARS|   ATOM:        55
 COLVARS|   ATOM:        56
 COLVARS|   ATOM:        57
 COLVARS|   ATOM:        59
 COLVARS|   ATOM:        60
 COLVARS|   ATOM:        61
 COLVARS|  POINT Nr.     2 OF TYPE: FIX_POINT
 COLVARS|   XYZ POSITION OF FIXED POINT:       28.351777   -0.009071    4.632012
          ----------------------------------------------------------------------
          ----------------------------------------------------------------------
 COLVARS| COLVAR INPUT INDEX:        8
 COLVARS| BOND          >>> POINTS:                                    1       2
 COLVARS| INFORMATION ON DEFINED GEOMETRICAL POINTS
 COLVARS|  POINT Nr.     1 OF TYPE: GEO_CENTER
 COLVARS|   ATOMS BUILDING THE GEOMETRICAL POINT
 COLVARS|   ATOM:        67
 COLVARS|   ATOM:        70
 COLVARS|   ATOM:        73
 COLVARS|   ATOM:        75
 COLVARS|   ATOM:        72
 COLVARS|   ATOM:        69
 COLVARS|  POINT Nr.     2 OF TYPE: FIX_POINT
 COLVARS|   XYZ POSITION OF FIXED POINT:       28.340123    0.009071   -4.632012
          ----------------------------------------------------------------------
          ----------------------------------------------------------------------
 COLVARS| COLVAR INPUT INDEX:        9
 COLVARS| BOND          >>> POINTS:                                    1       2
 COLVARS| INFORMATION ON DEFINED GEOMETRICAL POINTS
 COLVARS|  POINT Nr.     1 OF TYPE: GEO_CENTER
 COLVARS|   ATOMS BUILDING THE GEOMETRICAL POINT
 COLVARS|   ATOM:        79
 COLVARS|   ATOM:        80
 COLVARS|   ATOM:        81
 COLVARS|   ATOM:        83
 COLVARS|   ATOM:        84
 COLVARS|   ATOM:        85
 COLVARS|  POINT Nr.     2 OF TYPE: FIX_POINT
 COLVARS|   XYZ POSITION OF FIXED POINT:       37.800427   -0.009071    4.632012
          ----------------------------------------------------------------------
          ----------------------------------------------------------------------
 COLVARS| COLVAR INPUT INDEX:       10
 COLVARS| BOND          >>> POINTS:                                    1       2
 COLVARS| INFORMATION ON DEFINED GEOMETRICAL POINTS
 COLVARS|  POINT Nr.     1 OF TYPE: GEO_CENTER
 COLVARS|   ATOMS BUILDING THE GEOMETRICAL POINT
 COLVARS|   ATOM:        91
 COLVARS|   ATOM:        94
 COLVARS|   ATOM:        97
 COLVARS|   ATOM:        99
 COLVARS|   ATOM:        96
 COLVARS|   ATOM:        93
 COLVARS|  POINT Nr.     2 OF TYPE: FIX_POINT
 COLVARS|   XYZ POSITION OF FIXED POINT:       37.788773    0.009071   -4.632012
          ----------------------------------------------------------------------
          ----------------------------------------------------------------------
 COLVARS| COLVAR INPUT INDEX:       11
 COLVARS| BOND          >>> POINTS:                                    1       2
 COLVARS| INFORMATION ON DEFINED GEOMETRICAL POINTS
 COLVARS|  POINT Nr.     1 OF TYPE: GEO_CENTER
 COLVARS|   ATOMS BUILDING THE GEOMETRICAL POINT
 COLVARS|   ATOM:       103
 COLVARS|   ATOM:       104
 COLVARS|   ATOM:       105
 COLVARS|   ATOM:       107
 COLVARS|   ATOM:       108
 COLVARS|   ATOM:       109
 COLVARS|  POINT Nr.     2 OF TYPE: FIX_POINT
 COLVARS|   XYZ POSITION OF FIXED POINT:       47.249077   -0.009071    4.632012
          ----------------------------------------------------------------------
          ----------------------------------------------------------------------
 COLVARS| COLVAR INPUT INDEX:       12
 COLVARS| BOND          >>> POINTS:                                    1       2
 COLVARS| INFORMATION ON DEFINED GEOMETRICAL POINTS
 COLVARS|  POINT Nr.     1 OF TYPE: GEO_CENTER
 COLVARS|   ATOMS BUILDING THE GEOMETRICAL POINT
 COLVARS|   ATOM:       115
 COLVARS|   ATOM:       118
 COLVARS|   ATOM:       121
 COLVARS|   ATOM:       123
 COLVARS|   ATOM:       120
 COLVARS|   ATOM:       117
 COLVARS|  POINT Nr.     2 OF TYPE: FIX_POINT
 COLVARS|   XYZ POSITION OF FIXED POINT:       47.237423    0.009071   -4.632012
          ----------------------------------------------------------------------
 RESTRAINT| Active restraint on COLLECTIVE section Nr.     1. K [a.u.]= 0.005000
 RESTRAINT| Active restraint on COLLECTIVE section Nr.     2. K [a.u.]= 0.005000
 RESTRAINT| Active restraint on COLLECTIVE section Nr.     3. K [a.u.]= 0.005000
 RESTRAINT| Active restraint on COLLECTIVE section Nr.     4. K [a.u.]= 0.005000
 RESTRAINT| Active restraint on COLLECTIVE section Nr.     5. K [a.u.]= 0.005000
 RESTRAINT| Active restraint on COLLECTIVE section Nr.     6. K [a.u.]= 0.005000
 RESTRAINT| Active restraint on COLLECTIVE section Nr.     7. K [a.u.]= 0.005000
 RESTRAINT| Active restraint on COLLECTIVE section Nr.     8. K [a.u.]= 0.005000
 RESTRAINT| Active restraint on COLLECTIVE section Nr.     9. K [a.u.]= 0.005000
 RESTRAINT| Active restraint on COLLECTIVE section Nr.    10. K [a.u.]= 0.005000
 RESTRAINT| Active restraint on COLLECTIVE section Nr.    11. K [a.u.]= 0.005000
 RESTRAINT| Active restraint on COLLECTIVE section Nr.    12. K [a.u.]= 0.005000
 DECOMP =  T
 DECOMP =  T
 DECOMP =  T

 MD| Molecular Dynamics Protocol 
 MD| Ensemble Type                                                           NVE
 MD| Number of Time Steps                                                    200
 MD| Time Step [fs]                                                         0.10
 MD| Temperature [K]                                                      300.00
 MD| Temperature tolerance [K]                                              0.00
 MD| Constraints activated 
 MD| Tolerance for shake                                              0.1000E-05
 MD| Print MD information every                                        1 step(s)
 MD| File type     Print frequency[steps]                             File names
 MD| Coordinates          200                                      run-pos-1.xyz
 MD| Velocities             1                                      run-vel-1.xyz
 MD| Energies               1                                         run-1.ener
 MD| Dump                 200                                      run-1.restart

 ROT| Rotational Analysis Info 
 ROT| Principal axes and moments of inertia in atomic units:
 ROT|                                1                 2                 3
 ROT| EIGENVALUES            0.147348159E+13   0.181154206E+13   0.188503186E+13
 ROT|      X                     0.725533885      -0.686324004      -0.050595880
 ROT|      Y                     0.081160793       0.012326244       0.996624799
 ROT|      Z                     0.683383865       0.727191464      -0.064645708
 ROT| Numer of Rotovibrational vectors:     6

 Calculation of degrees of freedom
                                                      Number of atoms:       248
                                 Number of Intramolecular constraints:         0
                                 Number of Intermolecular constraints:         0
                                  Invariants(translation + rotations):         3
                                                   Degrees of freedom:       741


 Restraints Information
                                  Number of Intramolecular restraints:         0
                                  Number of Intermolecular restraints:        12

 *** WARNING in motion/thermostat/thermostat_methods.F:280 :: Thermostat ***
 *** for Particles has been defined but the ensemble provided does not   ***
 *** support thermostat for Particles! Ignoring thermostat input.        ***

 ************************** Velocities initialization **************************
 Initial Temperature                                                    333.01 K
 COM velocity:           -0.000023072435      0.000013407134     -0.000010397276
 *******************************************************************************

 FIRST CALL: force_env_calc_energy_force
 RESTART_KEY F
 ACTIVE STATE           1
 FOBSH| ACTIVE STATE =            1

 ENERGY| Total FORCE_EVAL ( MIXED ) energy (a.u.):             0.335110267859808

 STEP NUMBER                  =            0
 CPU TIME [s]                 =    0.0000000000000000        0.0000000000000000     

 MD_ENERGIES| Initialization proceeding


 ******************************** GO CP2K GO! **********************************
 INITIAL POTENTIAL ENERGY[hartree]     =                      0.335110267860E+00
 INITIAL KINETIC ENERGY[hartree]       =                      0.393255336332E+00
 INITIAL TEMPERATURE[K]                =                                 335.169
 INITIAL VOLUME[bohr^3]                =                      0.145764026995E+07
 INITIAL CELL LNTHS[bohr]   =      0.1133836E+03   0.1133836E+03   0.1133836E+03
 INITIAL CELL ANGLS[deg]    =      0.9000000E+02   0.9000000E+02   0.9000000E+02
 ******************************** GO CP2K GO! **********************************
 FOBSH| Put former active state           1 in new active state           1
 RANDOM_NUMBER_HOPPING_PROBA  0.42506174147428072     
 FOBSH| ACTIVE STATE =            1

 ENERGY| Total FORCE_EVAL ( MIXED ) energy (a.u.):             0.335008609056252

 FOBSH| CASE1: no hop and no trivial crossing
 ENTER integrator.F
 STEP NUMBER                  =            1
 CPU TIME [s]                 =    1.4712879434227943E-002   1.4712879434227943E-002

 *******************************************************************************
 ENSEMBLE TYPE                =                                              NVE
 STEP NUMBER                  =                                                1
 TIME [fs]                    =                                         0.100000
 CONSERVED QUANTITY [hartree] =                               0.728365608517E+00

                                              INSTANTANEOUS             AVERAGES
 CPU TIME [s]                 =                        0.01                 0.01
 ENERGY DRIFT PER ATOM [K]    =          0.550688966664E-05   0.000000000000E+00
 POTENTIAL ENERGY[hartree]    =          0.335008609056E+00   0.335008609056E+00
 KINETIC ENERGY [hartree]     =          0.393356999460E+00   0.393356999460E+00
 TEMPERATURE [K]              =                     335.256              335.256
 *******************************************************************************

 FOBSH| Put former active state           1 in new active state           1
 RANDOM_NUMBER_HOPPING_PROBA  0.57253296000111287     
 FOBSH| ACTIVE STATE =            1

 ENERGY| Total FORCE_EVAL ( MIXED ) energy (a.u.):             0.334868217806154

 FOBSH| CASE1: no hop and no trivial crossing
 ENTER integrator.F
 STEP NUMBER                  =            2
 CPU TIME [s]                 =    7.2773993015289307E-003   1.0995139367878437E-002

 *******************************************************************************
 ENSEMBLE TYPE                =                                              NVE
 STEP NUMBER                  =                                                2
 TIME [fs]                    =                                         0.200000
 CONSERVED QUANTITY [hartree] =                               0.728365565702E+00

                                              INSTANTANEOUS             AVERAGES
 CPU TIME [s]                 =                        0.01                 0.01
 ENERGY DRIFT PER ATOM [K]    =         -0.490085196108E-04  -0.245042598054E-04
 POTENTIAL ENERGY[hartree]    =          0.334868217806E+00   0.334938413431E+00
 KINETIC ENERGY [hartree]     =          0.393497347896E+00   0.393427173678E+00
 TEMPERATURE [K]              =                     335.375              335.315
 *******************************************************************************

 FOBSH| Put former active state           1 in new active state           1
 RANDOM_NUMBER_HOPPING_PROBA  0.98601443508896114     
 FOBSH| ACTIVE STATE =            1

 ENERGY| Total FORCE_EVAL ( MIXED ) energy (a.u.):             0.334689716204130

 FOBSH| CASE1: no hop and no trivial crossing
 ENTER integrator.F
 STEP NUMBER                  =            3
 CPU TIME [s]                 =    6.2465257942676544E-003   9.4122681766748428E-003

 *******************************************************************************
 ENSEMBLE TYPE                =                                              NVE
 STEP NUMBER                  =                                                3
 TIME [fs]                    =                                         0.300000
 CONSERVED QUANTITY [hartree] =                               0.728365476728E+00

                                              INSTANTANEOUS             AVERAGES
 CPU TIME [s]                 =                        0.01                 0.01
 ENERGY DRIFT PER ATOM [K]    =         -0.162298223370E-03  -0.704355809937E-04
 POTENTIAL ENERGY[hartree]    =          0.334689716204E+00   0.334855514356E+00
 KINETIC ENERGY [hartree]     =          0.393675760523E+00   0.393510035960E+00
 TEMPERATURE [K]              =                     335.527              335.386
 *******************************************************************************

 FOBSH| Put former active state           1 in new active state           1
 RANDOM_NUMBER_HOPPING_PROBA  0.95254159069821498     
 FOBSH| ACTIVE STATE =            1

 ENERGY| Total FORCE_EVAL ( MIXED ) energy (a.u.):             0.334474475199729

 FOBSH| CASE1: no hop and no trivial crossing
 ENTER integrator.F
 STEP NUMBER                  =            4
 CPU TIME [s]                 =    5.9183072298765182E-003   8.5387779399752617E-003

 *******************************************************************************
 ENSEMBLE TYPE                =                                              NVE
 STEP NUMBER                  =                                                4
 TIME [fs]                    =                                         0.400000
 CONSERVED QUANTITY [hartree] =                               0.728365343183E+00

                                              INSTANTANEOUS             AVERAGES
 CPU TIME [s]                 =                        0.01                 0.01
 ENERGY DRIFT PER ATOM [K]    =         -0.332338967375E-03  -0.135911427589E-03
 POTENTIAL ENERGY[hartree]    =          0.334474475200E+00   0.334760254567E+00
 KINETIC ENERGY [hartree]     =          0.393890867983E+00   0.393605243966E+00
 TEMPERATURE [K]              =                     335.711              335.467
 *******************************************************************************

 FOBSH| Put former active state           1 in new active state           1
 RANDOM_NUMBER_HOPPING_PROBA  0.89801537869200088     
 FOBSH| ACTIVE STATE =            1

 ENERGY| Total FORCE_EVAL ( MIXED ) energy (a.u.):             0.334224591759855

 FOBSH| CASE1: no hop and no trivial crossing
 ENTER integrator.F
 STEP NUMBER                  =            5
 CPU TIME [s]                 =    7.1527473628520966E-003   8.2615718245506297E-003

 *******************************************************************************
 ENSEMBLE TYPE                =                                              NVE
 STEP NUMBER                  =                                                5
 TIME [fs]                    =                                         0.500000
 CONSERVED QUANTITY [hartree] =                               0.728365166152E+00

                                              INSTANTANEOUS             AVERAGES
 CPU TIME [s]                 =                        0.01                 0.01
 ENERGY DRIFT PER ATOM [K]    =         -0.557749197561E-03  -0.220278981583E-03
 POTENTIAL ENERGY[hartree]    =          0.334224591760E+00   0.334653122005E+00
 KINETIC ENERGY [hartree]     =          0.394140574392E+00   0.393712310051E+00
 TEMPERATURE [K]              =                     335.923              335.558
 *******************************************************************************

 FOBSH| Put former active state           1 in new active state           1
 RANDOM_NUMBER_HOPPING_PROBA  0.71660996951509126     
 FOBSH| ACTIVE STATE =            1

 ENERGY| Total FORCE_EVAL ( MIXED ) energy (a.u.):             0.333942858231150

 FOBSH| CASE1: no hop and no trivial crossing
 ENTER integrator.F
 STEP NUMBER                  =            6
 CPU TIME [s]                 =    7.0738550275564194E-003   8.0636190250515938E-003

 *******************************************************************************
 ENSEMBLE TYPE                =                                              NVE
 STEP NUMBER                  =                                                6
 TIME [fs]                    =                                         0.600000
 CONSERVED QUANTITY [hartree] =                               0.728364948826E+00

                                              INSTANTANEOUS             AVERAGES
 CPU TIME [s]                 =                        0.01                 0.01
 ENERGY DRIFT PER ATOM [K]    =         -0.834466825836E-03  -0.322643622292E-03
 POTENTIAL ENERGY[hartree]    =          0.333942858231E+00   0.334534744710E+00
 KINETIC ENERGY [hartree]     =          0.394422090595E+00   0.393830606808E+00
 TEMPERATURE [K]              =                     336.163              335.659
 *******************************************************************************

 FOBSH| Put former active state           1 in new active state           1
 RANDOM_NUMBER_HOPPING_PROBA  0.87535406930224191     
 FOBSH| ACTIVE STATE =            1

 ENERGY| Total FORCE_EVAL ( MIXED ) energy (a.u.):             0.333632715669056

 FOBSH| CASE1: no hop and no trivial crossing
 ENTER integrator.F
 STEP NUMBER                  =            7
 CPU TIME [s]                 =    6.3976533710956573E-003   7.8256239316293174E-003

 *******************************************************************************
 ENSEMBLE TYPE                =                                              NVE
 STEP NUMBER                  =                                                7
 TIME [fs]                    =                                         0.700000
 CONSERVED QUANTITY [hartree] =                               0.728364694267E+00

                                              INSTANTANEOUS             AVERAGES
 CPU TIME [s]                 =                        0.01                 0.01
 ENERGY DRIFT PER ATOM [K]    =         -0.115859348807E-02  -0.442065031689E-03
 POTENTIAL ENERGY[hartree]    =          0.333632715669E+00   0.334405883418E+00
 KINETIC ENERGY [hartree]     =          0.394731978598E+00   0.393959374207E+00
 TEMPERATURE [K]              =                     336.427              335.769
 *******************************************************************************

 FOBSH| Reordering: for state           4 old index was           5 with overlap -0.99995685434845094      and former   0.0000000000000000     
 FOBSH| Reordering: for state           5 old index was           4 with overlap  0.99999947739919448      and former   0.0000000000000000     
 FOBSH| New map:            1           2           3           5           4           6           7           8           9          10          11          12
 FOBSH| Put former active state           1 in new active state           1
 RANDOM_NUMBER_HOPPING_PROBA  0.91330135729319484     
 FOBSH| ACTIVE STATE =            1

 ENERGY| Total FORCE_EVAL ( MIXED ) energy (a.u.):             0.333298205323065

 FOBSH| CASE1: no hop and no trivial crossing
 ENTER integrator.F
 STEP NUMBER                  =            8
 CPU TIME [s]                 =    6.5608788281679153E-003   7.6675307936966419E-003

 *******************************************************************************
 ENSEMBLE TYPE                =                                              NVE
 STEP NUMBER                  =                                                8
 TIME [fs]                    =                                         0.800000
 CONSERVED QUANTITY [hartree] =                               0.728364406618E+00

                                              INSTANTANEOUS             AVERAGES
 CPU TIME [s]                 =                        0.01                 0.01
 ENERGY DRIFT PER ATOM [K]    =         -0.152485303028E-02  -0.577413531512E-03
 POTENTIAL ENERGY[hartree]    =          0.333298205323E+00   0.334267423656E+00
 KINETIC ENERGY [hartree]     =          0.395066201294E+00   0.394097727593E+00
 TEMPERATURE [K]              =                     336.712              335.887
 *******************************************************************************

 FOBSH| Put former active state           1 in new active state           1
 RANDOM_NUMBER_HOPPING_PROBA  0.62352110461620380     
 FOBSH| ACTIVE STATE =            1

 ENERGY| Total FORCE_EVAL ( MIXED ) energy (a.u.):             0.332943907020816

 FOBSH| CASE1: no hop and no trivial crossing
 ENTER integrator.F
 STEP NUMBER                  =            9
 CPU TIME [s]                 =    7.0344284176826477E-003   7.5971860852506422E-003

 *******************************************************************************
 ENSEMBLE TYPE                =                                              NVE
 STEP NUMBER                  =                                                9
 TIME [fs]                    =                                         0.900000
 CONSERVED QUANTITY [hartree] =                               0.728364089884E+00

                                              INSTANTANEOUS             AVERAGES
 CPU TIME [s]                 =                        0.01                 0.01
 ENERGY DRIFT PER ATOM [K]    =         -0.192814547102E-02  -0.727494858124E-03
 POTENTIAL ENERGY[hartree]    =          0.332943907021E+00   0.334120366252E+00
 KINETIC ENERGY [hartree]     =          0.395420182863E+00   0.394244667067E+00
 TEMPERATURE [K]              =                     337.014              336.012
 *******************************************************************************

 FOBSH| Put former active state           1 in new active state           1
 RANDOM_NUMBER_HOPPING_PROBA  0.52456615215860303     
 FOBSH| ACTIVE STATE =            1

 ENERGY| Total FORCE_EVAL ( MIXED ) energy (a.u.):             0.332574870891484

 FOBSH| CASE1: no hop and no trivial crossing
 ENTER integrator.F
 STEP NUMBER                  =           10
 CPU TIME [s]                 =    6.7855194211006165E-003   7.5160194188356403E-003

 *******************************************************************************
 ENSEMBLE TYPE                =                                              NVE
 STEP NUMBER                  =                                               10
 TIME [fs]                    =                                         1.000000
 CONSERVED QUANTITY [hartree] =                               0.728363748666E+00

                                              INSTANTANEOUS             AVERAGES
 CPU TIME [s]                 =                        0.01                 0.01
 ENERGY DRIFT PER ATOM [K]    =         -0.236261325848E-02  -0.891006698160E-03
 POTENTIAL ENERGY[hartree]    =          0.332574870891E+00   0.333965816716E+00
 KINETIC ENERGY [hartree]     =          0.395788877774E+00   0.394399088138E+00
 TEMPERATURE [K]              =                     337.328              336.144
 *******************************************************************************

 FOBSH| Put former active state           1 in new active state           1
 RANDOM_NUMBER_HOPPING_PROBA  0.82463783945997038     
 FOBSH| ACTIVE STATE =            1

 ENERGY| Total FORCE_EVAL ( MIXED ) energy (a.u.):             0.332196544062447

 FOBSH| CASE1: no hop and no trivial crossing
 ENTER integrator.F
 STEP NUMBER                  =           11
 CPU TIME [s]                 =    6.6581554710865021E-003   7.4380317872220821E-003

 *******************************************************************************
 ENSEMBLE TYPE                =                                              NVE
 STEP NUMBER                  =                                               11
 TIME [fs]                    =                                         1.100000
 CONSERVED QUANTITY [hartree] =                               0.728363387852E+00

                                              INSTANTANEOUS             AVERAGES
 CPU TIME [s]                 =                        0.01                 0.01
 ENERGY DRIFT PER ATOM [K]    =         -0.282203235485E-02  -0.106655448513E-02
 POTENTIAL ENERGY[hartree]    =          0.332196544062E+00   0.333804973748E+00
 KINETIC ENERGY [hartree]     =          0.396166843789E+00   0.394559793197E+00
 TEMPERATURE [K]              =                     337.650              336.281
 *******************************************************************************

 FOBSH| Put former active state           1 in new active state           1
 RANDOM_NUMBER_HOPPING_PROBA  0.10919677156790358     
 FOBSH| ACTIVE STATE =            1

 ENERGY| Total FORCE_EVAL ( MIXED ) energy (a.u.):             0.331814692320578

 FOBSH| CASE1: no hop and no trivial crossing
 ENTER integrator.F
 STEP NUMBER                  =           12
 CPU TIME [s]                 =    6.9899428635835648E-003   7.4006910435855389E-003

 *******************************************************************************
 ENSEMBLE TYPE                =                                              NVE
 STEP NUMBER                  =                                               12
 TIME [fs]                    =                                         1.200000
 CONSERVED QUANTITY [hartree] =                               0.728363012537E+00

                                              INSTANTANEOUS             AVERAGES
 CPU TIME [s]                 =                        0.01                 0.01
 ENERGY DRIFT PER ATOM [K]    =         -0.329991531322E-02  -0.125266788747E-02
 POTENTIAL ENERGY[hartree]    =          0.331814692321E+00   0.333639116962E+00
 KINETIC ENERGY [hartree]     =          0.396548320216E+00   0.394725503782E+00
 TEMPERATURE [K]              =                     337.975              336.422
 *******************************************************************************

 FOBSH| Reordering: for state           3 old index was           4 with overlap -0.99994916252964727      and former   2.2581313519934192E-006
 FOBSH| Reordering: for state           4 old index was           3 with overlap -0.99968626021796558      and former   2.0994506605404368E-006
 FOBSH| New map:            1           2           4           3           5           6           7           8           9          10          11          12
 FOBSH| Put former active state           1 in new active state           1
 RANDOM_NUMBER_HOPPING_PROBA  0.45507176864308491     
 FOBSH| ACTIVE STATE =            1

 ENERGY| Total FORCE_EVAL ( MIXED ) energy (a.u.):             0.331435317027388

 FOBSH| CASE1: no hop and no trivial crossing
 ENTER integrator.F
 STEP NUMBER                  =           13
 CPU TIME [s]                 =    6.7318957298994064E-003   7.3492452502250671E-003

 *******************************************************************************
 ENSEMBLE TYPE                =                                              NVE
 STEP NUMBER                  =                                               13
 TIME [fs]                    =                                         1.300000
 CONSERVED QUANTITY [hartree] =                               0.728362628339E+00

                                              INSTANTANEOUS             AVERAGES
 CPU TIME [s]                 =                        0.01                 0.01
 ENERGY DRIFT PER ATOM [K]    =         -0.378910879791E-02  -0.144777872674E-02
 POTENTIAL ENERGY[hartree]    =          0.331435317027E+00   0.333469593890E+00
 KINETIC ENERGY [hartree]     =          0.396927311311E+00   0.394894873592E+00
 TEMPERATURE [K]              =                     338.298              336.566
 *******************************************************************************

 FOBSH| Put former active state           1 in new active state           1
 RANDOM_NUMBER_HOPPING_PROBA  0.69851938874740926     
 FOBSH| ACTIVE STATE =            1

 ENERGY| Total FORCE_EVAL ( MIXED ) energy (a.u.):             0.331064566490976

 FOBSH| CASE1: no hop and no trivial crossing
 ENTER integrator.F
 STEP NUMBER                  =           14
 CPU TIME [s]                 =    6.4411424100399017E-003   7.2843807616404122E-003

 *******************************************************************************
 ENSEMBLE TYPE                =                                              NVE
 STEP NUMBER                  =                                               14
 TIME [fs]                    =                                         1.400000
 CONSERVED QUANTITY [hartree] =                               0.728362240755E+00

                                              INSTANTANEOUS             AVERAGES
 CPU TIME [s]                 =                        0.01                 0.01
 ENERGY DRIFT PER ATOM [K]    =         -0.428261315943E-02  -0.165026690050E-02
 POTENTIAL ENERGY[hartree]    =          0.331064566491E+00   0.333297806219E+00
 KINETIC ENERGY [hartree]     =          0.397297674264E+00   0.395066502211E+00
 TEMPERATURE [K]              =                     338.614              336.713
 *******************************************************************************

 FOBSH| Put former active state           1 in new active state           1
 RANDOM_NUMBER_HOPPING_PROBA  0.22173039222134316     
 FOBSH| ACTIVE STATE =            1

 ENERGY| Total FORCE_EVAL ( MIXED ) energy (a.u.):             0.330708647050034

 FOBSH| CASE1: no hop and no trivial crossing
 ENTER integrator.F
 STEP NUMBER                  =           15
 CPU TIME [s]                 =    6.2568467110395432E-003   7.2158784916003544E-003

 *******************************************************************************
 ENSEMBLE TYPE                =                                              NVE
 STEP NUMBER                  =                                               15
 TIME [fs]                    =                                         1.500000
 CONSERVED QUANTITY [hartree] =                               0.728361855453E+00

                                              INSTANTANEOUS             AVERAGES
 CPU TIME [s]                 =                        0.01                 0.01
 ENERGY DRIFT PER ATOM [K]    =         -0.477321264579E-02  -0.185846328352E-02
 POTENTIAL ENERGY[hartree]    =          0.330708647050E+00   0.333125195608E+00
 KINETIC ENERGY [hartree]     =          0.397653208403E+00   0.395238949291E+00
 TEMPERATURE [K]              =                     338.917              336.859
 *******************************************************************************

 FOBSH| Put former active state           1 in new active state           1
 RANDOM_NUMBER_HOPPING_PROBA  0.84849448094304003     
 FOBSH| ACTIVE STATE =            1

 ENERGY| Total FORCE_EVAL ( MIXED ) energy (a.u.):             0.330373732649418

 FOBSH| CASE1: no hop and no trivial crossing
 ENTER integrator.F
 STEP NUMBER                  =           16
 CPU TIME [s]                 =    7.0315450429916382E-003   7.2043576510623097E-003

 *******************************************************************************
 ENSEMBLE TYPE                =                                              NVE
 STEP NUMBER                  =                                               16
 TIME [fs]                    =                                         1.600000
 CONSERVED QUANTITY [hartree] =                               0.728361478051E+00

                                              INSTANTANEOUS             AVERAGES
 CPU TIME [s]                 =                        0.01                 0.01
 ENERGY DRIFT PER ATOM [K]    =         -0.525375210733E-02  -0.207066883501E-02
 POTENTIAL ENERGY[hartree]    =          0.330373732649E+00   0.332953229173E+00
 KINETIC ENERGY [hartree]     =          0.397987745402E+00   0.395410749048E+00
 TEMPERATURE [K]              =                     339.202              337.006
 *******************************************************************************

 FOBSH| Put former active state           1 in new active state           1
 RANDOM_NUMBER_HOPPING_PROBA  0.83049142284836064     
 FOBSH| ACTIVE STATE =            1

 ENERGY| Total FORCE_EVAL ( MIXED ) energy (a.u.):             0.330065874595197

 FOBSH| CASE1: no hop and no trivial crossing
 ENTER integrator.F
 STEP NUMBER                  =           17
 CPU TIME [s]                 =    1.9365364685654640E-002   7.9197110060383290E-003

 *******************************************************************************
 ENSEMBLE TYPE                =                                              NVE
 STEP NUMBER                  =                                               17
 TIME [fs]                    =                                         1.700000
 CONSERVED QUANTITY [hartree] =                               0.728361114068E+00

                                              INSTANTANEOUS             AVERAGES
 CPU TIME [s]                 =                        0.02                 0.01
 ENERGY DRIFT PER ATOM [K]    =         -0.571720608478E-02  -0.228517102617E-02
 POTENTIAL ENERGY[hartree]    =          0.330065874595E+00   0.332783384786E+00
 KINETIC ENERGY [hartree]     =          0.398295239473E+00   0.395580424955E+00
 TEMPERATURE [K]              =                     339.464              337.151
 *******************************************************************************

 FOBSH| Put former active state           1 in new active state           1
 RANDOM_NUMBER_HOPPING_PROBA   3.5835056671335318E-002
 FOBSH| ACTIVE STATE =            1

 ENERGY| Total FORCE_EVAL ( MIXED ) energy (a.u.):             0.329790913055137

 FOBSH| CASE1: no hop and no trivial crossing
 ENTER integrator.F
 STEP NUMBER                  =           18
 CPU TIME [s]                 =    6.8079568445682526E-003   7.8579468859566581E-003

 *******************************************************************************
 ENSEMBLE TYPE                =                                              NVE
 STEP NUMBER                  =                                               18
 TIME [fs]                    =                                         1.800000
 CONSERVED QUANTITY [hartree] =                               0.728360768819E+00

                                              INSTANTANEOUS             AVERAGES
 CPU TIME [s]                 =                        0.01                 0.01
 ENERGY DRIFT PER ATOM [K]    =         -0.615680652198E-02  -0.250026188705E-02
 POTENTIAL ENERGY[hartree]    =          0.329790913055E+00   0.332617136356E+00
 KINETIC ENERGY [hartree]     =          0.398569855764E+00   0.395746504445E+00
 TEMPERATURE [K]              =                     339.698              337.292
 *******************************************************************************

 FOBSH| Reordering: for state           6 old index was           7 with overlap -0.99977777829173586      and former   6.1573223356842883E-005
 FOBSH| Reordering: for state           7 old index was           6 with overlap -0.99983904516448396      and former   6.1666742609741741E-005
 FOBSH| New map:            1           2           3           4           5           7           6           8           9          10          11          12
 FOBSH| Put former active state           1 in new active state           1
 RANDOM_NUMBER_HOPPING_PROBA  0.12588627338044925     
 FOBSH| ACTIVE STATE =            1

 ENERGY| Total FORCE_EVAL ( MIXED ) energy (a.u.):             0.329554391337869

 FOBSH| CASE1: no hop and no trivial crossing
 ENTER integrator.F
 STEP NUMBER                  =           19
 CPU TIME [s]                 =    2.0074583590030670E-002   8.5009277651184479E-003

 *******************************************************************************
 ENSEMBLE TYPE                =                                              NVE
 STEP NUMBER                  =                                               19
 TIME [fs]                    =                                         1.900000
 CONSERVED QUANTITY [hartree] =                               0.728360448213E+00

                                              INSTANTANEOUS             AVERAGES
 CPU TIME [s]                 =                        0.02                 0.01
 ENERGY DRIFT PER ATOM [K]    =         -0.656502963340E-02  -0.271419703159E-02
 POTENTIAL ENERGY[hartree]    =          0.329554391338E+00   0.332455939250E+00
 KINETIC ENERGY [hartree]     =          0.398806056875E+00   0.395907533520E+00
 TEMPERATURE [K]              =                     339.900              337.429
 *******************************************************************************

 FOBSH| Put former active state           1 in new active state           1
 RANDOM_NUMBER_HOPPING_PROBA  0.62234509350913103     
 FOBSH| ACTIVE STATE =            1

 ENERGY| Total FORCE_EVAL ( MIXED ) energy (a.u.):             0.329361472589681

 FOBSH| CASE1: no hop and no trivial crossing
 ENTER integrator.F
 STEP NUMBER                  =           20
 CPU TIME [s]                 =    7.1986876428127289E-003   8.4358157590031634E-003

 *******************************************************************************
 ENSEMBLE TYPE                =                                              NVE
 STEP NUMBER                  =                                               20
 TIME [fs]                    =                                         2.000000
 CONSERVED QUANTITY [hartree] =                               0.728360155386E+00

                                              INSTANTANEOUS             AVERAGES
 CPU TIME [s]                 =                        0.01                 0.01
 ENERGY DRIFT PER ATOM [K]    =         -0.693788242141E-02  -0.292538130109E-02
 POTENTIAL ENERGY[hartree]    =          0.329361472590E+00   0.332301215917E+00
 KINETIC ENERGY [hartree]     =          0.398998682796E+00   0.396062090984E+00
 TEMPERATURE [K]              =                     340.064              337.561
 *******************************************************************************

 FOBSH| Put former active state           1 in new active state           1
 RANDOM_NUMBER_HOPPING_PROBA  0.38080180208356468     
 FOBSH| ACTIVE STATE =            1

 ENERGY| Total FORCE_EVAL ( MIXED ) energy (a.u.):             0.329216868131248

 FOBSH| CASE1: no hop and no trivial crossing
 ENTER integrator.F
 STEP NUMBER                  =           21
 CPU TIME [s]                 =    1.9333435222506523E-002   8.9547500191699894E-003

 *******************************************************************************
 ENSEMBLE TYPE                =                                              NVE
 STEP NUMBER                  =                                               21
 TIME [fs]                    =                                         2.100000
 CONSERVED QUANTITY [hartree] =                               0.728359895604E+00

                                              INSTANTANEOUS             AVERAGES
 CPU TIME [s]                 =                        0.02                 0.01
 ENERGY DRIFT PER ATOM [K]    =         -0.726865825732E-02  -0.313220401329E-02
 POTENTIAL ENERGY[hartree]    =          0.329216868131E+00   0.332154342213E+00
 KINETIC ENERGY [hartree]     =          0.399143027473E+00   0.396208802245E+00
 TEMPERATURE [K]              =                     340.187              337.686
 *******************************************************************************

 FOBSH| Put former active state           1 in new active state           1
 RANDOM_NUMBER_HOPPING_PROBA  0.71971403474465934     
 FOBSH| ACTIVE STATE =            1

 ENERGY| Total FORCE_EVAL ( MIXED ) energy (a.u.):             0.329124760901113

 FOBSH| CASE1: no hop and no trivial crossing
 ENTER integrator.F
 STEP NUMBER                  =           22
 CPU TIME [s]                 =    6.6432375460863113E-003   8.8496812703934592E-003

 *******************************************************************************
 ENSEMBLE TYPE                =                                              NVE
 STEP NUMBER                  =                                               22
 TIME [fs]                    =                                         2.200000
 CONSERVED QUANTITY [hartree] =                               0.728359672897E+00

                                              INSTANTANEOUS             AVERAGES
 CPU TIME [s]                 =                        0.01                 0.01
 ENERGY DRIFT PER ATOM [K]    =         -0.755222818365E-02  -0.333311420285E-02
 POTENTIAL ENERGY[hartree]    =          0.329124760901E+00   0.332016633971E+00
 KINETIC ENERGY [hartree]     =          0.399234911996E+00   0.396346352688E+00
 TEMPERATURE [K]              =                     340.265              337.803
 *******************************************************************************

 FOBSH| Put former active state           1 in new active state           1
 RANDOM_NUMBER_HOPPING_PROBA  0.32085847941659479     
 FOBSH| ACTIVE STATE =            1

 ENERGY| Total FORCE_EVAL ( MIXED ) energy (a.u.):             0.329088741263225

 FOBSH| CASE1: no hop and no trivial crossing
 ENTER integrator.F
 STEP NUMBER                  =           23
 CPU TIME [s]                 =    1.8440267071127892E-002   9.2666632617297382E-003

 *******************************************************************************
 ENSEMBLE TYPE                =                                              NVE
 STEP NUMBER                  =                                               23
 TIME [fs]                    =                                         2.300000
 CONSERVED QUANTITY [hartree] =                               0.728359490229E+00

                                              INSTANTANEOUS             AVERAGES
 CPU TIME [s]                 =                        0.02                 0.01
 ENERGY DRIFT PER ATOM [K]    =         -0.778481650742E-02  -0.352666647696E-02
 POTENTIAL ENERGY[hartree]    =          0.329088741263E+00   0.331889334289E+00
 KINETIC ENERGY [hartree]     =          0.399270748966E+00   0.396473500352E+00
 TEMPERATURE [K]              =                     340.296              337.912
 *******************************************************************************

 FOBSH| Put former active state           1 in new active state           1
 RANDOM_NUMBER_HOPPING_PROBA  0.79374972942749600     
 FOBSH| ACTIVE STATE =            1

 ENERGY| Total FORCE_EVAL ( MIXED ) energy (a.u.):             0.329111752866265

 FOBSH| CASE1: no hop and no trivial crossing
 ENTER integrator.F
 STEP NUMBER                  =           24
 CPU TIME [s]                 =    6.6031496971845627E-003   9.1556835298736879E-003

 *******************************************************************************
 ENSEMBLE TYPE                =                                              NVE
 STEP NUMBER                  =                                               24
 TIME [fs]                    =                                         2.400000
 CONSERVED QUANTITY [hartree] =                               0.728359351775E+00

                                              INSTANTANEOUS             AVERAGES
 CPU TIME [s]                 =                        0.01                 0.01
 ENERGY DRIFT PER ATOM [K]    =         -0.796110739603E-02  -0.371143484859E-02
 POTENTIAL ENERGY[hartree]    =          0.329111752866E+00   0.331773601729E+00
 KINETIC ENERGY [hartree]     =          0.399247598909E+00   0.396589087792E+00
 TEMPERATURE [K]              =                     340.276              338.010
 *******************************************************************************

 FOBSH| Put former active state           1 in new active state           1
 RANDOM_NUMBER_HOPPING_PROBA  0.93432885556025480     
 FOBSH| ACTIVE STATE =            1

 ENERGY| Total FORCE_EVAL ( MIXED ) energy (a.u.):             0.329196042246769

 FOBSH| CASE1: no hop and no trivial crossing
 ENTER integrator.F
 STEP NUMBER                  =           25
 CPU TIME [s]                 =    1.9307332113385201E-002   9.5617494732141480E-003

 *******************************************************************************
 ENSEMBLE TYPE                =                                              NVE
 STEP NUMBER                  =                                               25
 TIME [fs]                    =                                         2.500000
 CONSERVED QUANTITY [hartree] =                               0.728359259189E+00

                                              INSTANTANEOUS             AVERAGES
 CPU TIME [s]                 =                        0.02                 0.01
 ENERGY DRIFT PER ATOM [K]    =         -0.807899627603E-02  -0.388613730569E-02
 POTENTIAL ENERGY[hartree]    =          0.329196042247E+00   0.331670499350E+00
 KINETIC ENERGY [hartree]     =          0.399163216942E+00   0.396692052958E+00
 TEMPERATURE [K]              =                     340.204              338.098
 *******************************************************************************

 FOBSH| Reordering: for state          11 old index was          12 with overlap  0.99994012610796923      and former   0.0000000000000000     
 FOBSH| Reordering: for state          12 old index was          11 with overlap -0.99986059070580890      and former   0.0000000000000000     
 FOBSH| New map:            1           2           3           4           5           6           7           8           9          10          12          11
 FOBSH| Put former active state           1 in new active state           1
 RANDOM_NUMBER_HOPPING_PROBA  0.73068427736459529     
 FOBSH| ACTIVE STATE =            1

 ENERGY| Total FORCE_EVAL ( MIXED ) energy (a.u.):             0.329343123561577

 FOBSH| CASE1: no hop and no trivial crossing
 ENTER integrator.F
 STEP NUMBER                  =           26
 CPU TIME [s]                 =    6.3827857375144958E-003   9.4394816372257006E-003

 *******************************************************************************
 ENSEMBLE TYPE                =                                              NVE
 STEP NUMBER                  =                                               26
 TIME [fs]                    =                                         2.600000
 CONSERVED QUANTITY [hartree] =                               0.728359213869E+00

                                              INSTANTANEOUS             AVERAGES
 CPU TIME [s]                 =                        0.01                 0.01
 ENERGY DRIFT PER ATOM [K]    =         -0.813670091246E-02  -0.404962052133E-02
 POTENTIAL ENERGY[hartree]    =          0.329343123562E+00   0.331580984897E+00
 KINETIC ENERGY [hartree]     =          0.399016090308E+00   0.396781439010E+00
 TEMPERATURE [K]              =                     340.079              338.174
 *******************************************************************************

 FOBSH| Put former active state           1 in new active state           1
 RANDOM_NUMBER_HOPPING_PROBA   5.2447597475047292E-002
 FOBSH| ACTIVE STATE =            1

 ENERGY| Total FORCE_EVAL ( MIXED ) energy (a.u.):             0.329553749786338

 FOBSH| CASE1: no hop and no trivial crossing
 ENTER integrator.F
 STEP NUMBER                  =           27
 CPU TIME [s]                 =    9.3971658498048782E-003   9.4379143858397442E-003

 *******************************************************************************
 ENSEMBLE TYPE                =                                              NVE
 STEP NUMBER                  =                                               27
 TIME [fs]                    =                                         2.700000
 CONSERVED QUANTITY [hartree] =                               0.728359217511E+00

                                              INSTANTANEOUS             AVERAGES
 CPU TIME [s]                 =                        0.01                 0.01
 ENERGY DRIFT PER ATOM [K]    =         -0.813206436974E-02  -0.420082214535E-02
 POTENTIAL ENERGY[hartree]    =          0.329553749786E+00   0.331505902115E+00
 KINETIC ENERGY [hartree]     =          0.398805467724E+00   0.396856403037E+00
 TEMPERATURE [K]              =                     339.899              338.238
 *******************************************************************************

 FOBSH| Put former active state           1 in new active state           1
 RANDOM_NUMBER_HOPPING_PROBA  0.22220662730256527     
 FOBSH| ACTIVE STATE =            1

 ENERGY| Total FORCE_EVAL ( MIXED ) energy (a.u.):             0.329827889381697

 FOBSH| CASE1: no hop and no trivial crossing
 ENTER integrator.F
 STEP NUMBER                  =           28
 CPU TIME [s]                 =    2.0033070817589760E-002   9.8163128298308158E-003

 *******************************************************************************
 ENSEMBLE TYPE                =                                              NVE
 STEP NUMBER                  =                                               28
 TIME [fs]                    =                                         2.800000
 CONSERVED QUANTITY [hartree] =                               0.728359271780E+00

                                              INSTANTANEOUS             AVERAGES
 CPU TIME [s]                 =                        0.02                 0.01
 ENERGY DRIFT PER ATOM [K]    =         -0.806296353195E-02  -0.433875576630E-02
 POTENTIAL ENERGY[hartree]    =          0.329827889382E+00   0.331445973089E+00
 KINETIC ENERGY [hartree]     =          0.398531382399E+00   0.396916223728E+00
 TEMPERATURE [K]              =                     339.666              338.289
 *******************************************************************************

 FOBSH| Put former active state           1 in new active state           1
 RANDOM_NUMBER_HOPPING_PROBA  0.82568653783360502     
 FOBSH| ACTIVE STATE =            1

 ENERGY| Total FORCE_EVAL ( MIXED ) energy (a.u.):             0.330164715849906

 FOBSH| CASE1: no hop and no trivial crossing
 ENTER integrator.F
 STEP NUMBER                  =           29
 CPU TIME [s]                 =    7.5193159282207489E-003   9.7371060401201248E-003

 *******************************************************************************
 ENSEMBLE TYPE                =                                              NVE
 STEP NUMBER                  =                                               29
 TIME [fs]                    =                                         2.900000
 CONSERVED QUANTITY [hartree] =                               0.728359374367E+00

                                              INSTANTANEOUS             AVERAGES
 CPU TIME [s]                 =                        0.01                 0.01
 ENERGY DRIFT PER ATOM [K]    =         -0.793234177024E-02  -0.446267252505E-02
 POTENTIAL ENERGY[hartree]    =          0.330164715850E+00   0.331401791804E+00
 KINETIC ENERGY [hartree]     =          0.398194658517E+00   0.396960307686E+00
 TEMPERATURE [K]              =                     339.379              338.327
 *******************************************************************************

 FOBSH| Reordering: for state           5 old index was           6 with overlap -0.99988373600692693      and former   0.0000000000000000     
 FOBSH| Reordering: for state           6 old index was           5 with overlap  0.99999973602964998      and former   0.0000000000000000     
 FOBSH| New map:            1           2           3           4           6           5           7           8           9          10          11          12
 FOBSH| Put former active state           1 in new active state           1
 RANDOM_NUMBER_HOPPING_PROBA  0.38444406491805933     
 FOBSH| ACTIVE STATE =            1

 ENERGY| Total FORCE_EVAL ( MIXED ) energy (a.u.):             0.330562615731416

 FOBSH| CASE1: no hop and no trivial crossing
 ENTER integrator.F
 STEP NUMBER                  =           30
 CPU TIME [s]                 =    1.9975855946540833E-002   1.0078397703667481E-002

 *******************************************************************************
 ENSEMBLE TYPE                =                                              NVE
 STEP NUMBER                  =                                               30
 TIME [fs]                    =                                         3.000000
 CONSERVED QUANTITY [hartree] =                               0.728359525843E+00

                                              INSTANTANEOUS             AVERAGES
 CPU TIME [s]                 =                        0.02                 0.01
 ENERGY DRIFT PER ATOM [K]    =         -0.773946933224E-02  -0.457189908529E-02
 POTENTIAL ENERGY[hartree]    =          0.330562615731E+00   0.331373819269E+00
 KINETIC ENERGY [hartree]     =          0.397796910112E+00   0.396988194434E+00
 TEMPERATURE [K]              =                     339.040              338.350
 *******************************************************************************

 FOBSH| Put former active state           1 in new active state           1
 RANDOM_NUMBER_HOPPING_PROBA  0.19950001465529277     
 FOBSH| ACTIVE STATE =            1

 ENERGY| Total FORCE_EVAL ( MIXED ) energy (a.u.):             0.331019191225285

 FOBSH| CASE1: no hop and no trivial crossing
 ENTER integrator.F
 STEP NUMBER                  =           31
 CPU TIME [s]                 =    7.6794400811195374E-003   1.0001011973907870E-002

 *******************************************************************************
 ENSEMBLE TYPE                =                                              NVE
 STEP NUMBER                  =                                               31
 TIME [fs]                    =                                         3.100000
 CONSERVED QUANTITY [hartree] =                               0.728359724437E+00

                                              INSTANTANEOUS             AVERAGES
 CPU TIME [s]                 =                        0.01                 0.01
 ENERGY DRIFT PER ATOM [K]    =         -0.748660213126E-02  -0.466592176420E-02
 POTENTIAL ENERGY[hartree]    =          0.331019191225E+00   0.331362379654E+00
 KINETIC ENERGY [hartree]     =          0.397340533212E+00   0.396999560201E+00
 TEMPERATURE [K]              =                     338.651              338.360
 *******************************************************************************

 FOBSH| Put former active state           1 in new active state           1
 RANDOM_NUMBER_HOPPING_PROBA  0.18323923021409660     
 FOBSH| ACTIVE STATE =            1

 ENERGY| Total FORCE_EVAL ( MIXED ) energy (a.u.):             0.331531284700909

 FOBSH| CASE1: no hop and no trivial crossing
 ENTER integrator.F
 STEP NUMBER                  =           32
 CPU TIME [s]                 =    2.0317103713750839E-002   1.0323389840777963E-002

 *******************************************************************************
 ENSEMBLE TYPE                =                                              NVE
 STEP NUMBER                  =                                               32
 TIME [fs]                    =                                         3.200000
 CONSERVED QUANTITY [hartree] =                               0.728359968366E+00

                                              INSTANTANEOUS             AVERAGES
 CPU TIME [s]                 =                        0.02                 0.01
 ENERGY DRIFT PER ATOM [K]    =         -0.717601121323E-02  -0.474436205948E-02
 POTENTIAL ENERGY[hartree]    =          0.331531284701E+00   0.331367657937E+00
 KINETIC ENERGY [hartree]     =          0.396828683665E+00   0.396994220309E+00
 TEMPERATURE [K]              =                     338.214              338.355
 *******************************************************************************

 FOBSH| Reordering: for state           7 old index was           8 with overlap -0.99990101506365647      and former   2.5830961685694081E-006
 FOBSH| Reordering: for state           8 old index was           7 with overlap  0.99997690611016132      and former  -2.6919676249131042E-006
 FOBSH| New map:            1           2           3           4           5           6           8           7           9          10          11          12
 FOBSH| Put former active state           1 in new active state           1
 RANDOM_NUMBER_HOPPING_PROBA  0.19344440224497481     
 FOBSH| ACTIVE STATE =            1

 ENERGY| Total FORCE_EVAL ( MIXED ) energy (a.u.):             0.332095011168076

 FOBSH| CASE1: no hop and no trivial crossing
 ENTER integrator.F
 STEP NUMBER                  =           33
 CPU TIME [s]                 =    7.5878873467445374E-003   1.0240495825807253E-002

 *******************************************************************************
 ENSEMBLE TYPE                =                                              NVE
 STEP NUMBER                  =                                               33
 TIME [fs]                    =                                         3.300000
 CONSERVED QUANTITY [hartree] =                               0.728360255013E+00

                                              INSTANTANEOUS             AVERAGES
 CPU TIME [s]                 =                        0.01                 0.01
 ENERGY DRIFT PER ATOM [K]    =         -0.681102787938E-02  -0.480698829644E-02
 POTENTIAL ENERGY[hartree]    =          0.332095011168E+00   0.331389698944E+00
 KINETIC ENERGY [hartree]     =          0.396265243845E+00   0.396972130113E+00
 TEMPERATURE [K]              =                     337.734              338.337
 *******************************************************************************

 FOBSH| Put former active state           1 in new active state           1
 RANDOM_NUMBER_HOPPING_PROBA   9.8347387615651052E-002
 FOBSH| ACTIVE STATE =            1

 ENERGY| Total FORCE_EVAL ( MIXED ) energy (a.u.):             0.332705797905393

 FOBSH| CASE1: no hop and no trivial crossing
 ENTER integrator.F
 STEP NUMBER                  =           34
 CPU TIME [s]                 =    2.0809477195143700E-002   1.0551348219023031E-002

 *******************************************************************************
 ENSEMBLE TYPE                =                                              NVE
 STEP NUMBER                  =                                               34
 TIME [fs]                    =                                         3.400000
 CONSERVED QUANTITY [hartree] =                               0.728360581245E+00

                                              INSTANTANEOUS             AVERAGES
 CPU TIME [s]                 =                        0.02                 0.01
 ENERGY DRIFT PER ATOM [K]    =         -0.639564226347E-02  -0.485371341312E-02
 POTENTIAL ENERGY[hartree]    =          0.332705797905E+00   0.331428407737E+00
 KINETIC ENERGY [hartree]     =          0.395654783339E+00   0.396933384620E+00
 TEMPERATURE [K]              =                     337.214              338.304
 *******************************************************************************

 FOBSH| Put former active state           1 in new active state           1
 RANDOM_NUMBER_HOPPING_PROBA  0.84195369182302804     
 FOBSH| ACTIVE STATE =            1

 ENERGY| Total FORCE_EVAL ( MIXED ) energy (a.u.):             0.333358436832114

 FOBSH| CASE1: no hop and no trivial crossing
 ENTER integrator.F
 STEP NUMBER                  =           35
 CPU TIME [s]                 =    2.0552298054099083E-002   1.0837089642882347E-002

 *******************************************************************************
 ENSEMBLE TYPE                =                                              NVE
 STEP NUMBER                  =                                               35
 TIME [fs]                    =                                         3.500000
 CONSERVED QUANTITY [hartree] =                               0.728360943315E+00

                                              INSTANTANEOUS             AVERAGES
 CPU TIME [s]                 =                        0.02                 0.01
 ENERGY DRIFT PER ATOM [K]    =         -0.593462433497E-02  -0.488459658232E-02
 POTENTIAL ENERGY[hartree]    =          0.333358436832E+00   0.331483551425E+00
 KINETIC ENERGY [hartree]     =          0.395002506482E+00   0.396878216673E+00
 TEMPERATURE [K]              =                     336.658              338.257
 *******************************************************************************

 FOBSH| Put former active state           1 in new active state           1
 RANDOM_NUMBER_HOPPING_PROBA  0.83000150617219359     
 FOBSH| ACTIVE STATE =            1

 ENERGY| Total FORCE_EVAL ( MIXED ) energy (a.u.):             0.334047144570363

 FOBSH| CASE1: no hop and no trivial crossing
 ENTER integrator.F
 STEP NUMBER                  =           36
 CPU TIME [s]                 =    7.4172709137201309E-003   1.0742094678183396E-002

 *******************************************************************************
 ENSEMBLE TYPE                =                                              NVE
 STEP NUMBER                  =                                               36
 TIME [fs]                    =                                         3.600000
 CONSERVED QUANTITY [hartree] =                               0.728361337016E+00

                                              INSTANTANEOUS             AVERAGES
 CPU TIME [s]                 =                        0.01                 0.01
 ENERGY DRIFT PER ATOM [K]    =         -0.543333063565E-02  -0.489983919491E-02
 POTENTIAL ENERGY[hartree]    =          0.334047144570E+00   0.331554762346E+00
 KINETIC ENERGY [hartree]     =          0.394314192445E+00   0.396806993778E+00
 TEMPERATURE [K]              =                     336.071              338.196
 *******************************************************************************

 FOBSH| Put former active state           1 in new active state           1
 RANDOM_NUMBER_HOPPING_PROBA  0.54636093313877343     
 FOBSH| ACTIVE STATE =            1

 ENERGY| Total FORCE_EVAL ( MIXED ) energy (a.u.):             0.334765625407389

 FOBSH| CASE1: no hop and no trivial crossing
 ENTER integrator.F
 STEP NUMBER                  =           37
 CPU TIME [s]                 =    2.0193509757518768E-002   1.0997538328976243E-002

 *******************************************************************************
 ENSEMBLE TYPE                =                                              NVE
 STEP NUMBER                  =                                               37
 TIME [fs]                    =                                         3.700000
 CONSERVED QUANTITY [hartree] =                               0.728361757636E+00

                                              INSTANTANEOUS             AVERAGES
 CPU TIME [s]                 =                        0.02                 0.01
 ENERGY DRIFT PER ATOM [K]    =         -0.489776087775E-02  -0.489978302418E-02
 POTENTIAL ENERGY[hartree]    =          0.334765625407E+00   0.331641542429E+00
 KINETIC ENERGY [hartree]     =          0.393596132229E+00   0.396720213736E+00
 TEMPERATURE [K]              =                     335.459              338.122
 *******************************************************************************

 FOBSH| Put former active state           1 in new active state           1
 RANDOM_NUMBER_HOPPING_PROBA  0.77675724950747294     
 FOBSH| ACTIVE STATE =            1

 ENERGY| Total FORCE_EVAL ( MIXED ) energy (a.u.):             0.335507148122055

 FOBSH| CASE1: no hop and no trivial crossing
 ENTER integrator.F
 STEP NUMBER                  =           38
 CPU TIME [s]                 =    6.8089812994003296E-003   1.0887313143987403E-002

 *******************************************************************************
 ENSEMBLE TYPE                =                                              NVE
 STEP NUMBER                  =                                               38
 TIME [fs]                    =                                         3.800000
 CONSERVED QUANTITY [hartree] =                               0.728362199915E+00

                                              INSTANTANEOUS             AVERAGES
 CPU TIME [s]                 =                        0.01                 0.01
 ENERGY DRIFT PER ATOM [K]    =         -0.433461346136E-02  -0.488491014094E-02
 POTENTIAL ENERGY[hartree]    =          0.335507148122E+00   0.331743268895E+00
 KINETIC ENERGY [hartree]     =          0.392855051793E+00   0.396618498948E+00
 TEMPERATURE [K]              =                     334.828              338.035
 *******************************************************************************

 FOBSH| Put former active state           1 in new active state           1
 RANDOM_NUMBER_HOPPING_PROBA  0.88457025424358748     
 FOBSH| ACTIVE STATE =            1

 ENERGY| Total FORCE_EVAL ( MIXED ) energy (a.u.):             0.336264624454074

 FOBSH| CASE1: no hop and no trivial crossing
 ENTER integrator.F
 STEP NUMBER                  =           39
 CPU TIME [s]                 =    1.9964709877967834E-002   1.1120066906397157E-002

 *******************************************************************************
 ENSEMBLE TYPE                =                                              NVE
 STEP NUMBER                  =                                               39
 TIME [fs]                    =                                         3.900000
 CONSERVED QUANTITY [hartree] =                               0.728362657296E+00

                                              INSTANTANEOUS             AVERAGES
 CPU TIME [s]                 =                        0.02                 0.01
 ENERGY DRIFT PER ATOM [K]    =         -0.375223713423E-02  -0.485586724334E-02
 POTENTIAL ENERGY[hartree]    =          0.336264624454E+00   0.331859201088E+00
 KINETIC ENERGY [hartree]     =          0.392098032842E+00   0.396502589561E+00
 TEMPERATURE [K]              =                     334.183              337.936
 *******************************************************************************

 FOBSH| Put former active state           1 in new active state           1
 RANDOM_NUMBER_HOPPING_PROBA  0.17037134348350566     
 FOBSH| ACTIVE STATE =            1

 ENERGY| Total FORCE_EVAL ( MIXED ) energy (a.u.):             0.337030701728050

 FOBSH| CASE1: no hop and no trivial crossing
 ENTER integrator.F
 STEP NUMBER                  =           40
 CPU TIME [s]                 =    6.8289060145616531E-003   1.1012787884101269E-002

 *******************************************************************************
 ENSEMBLE TYPE                =                                              NVE
 STEP NUMBER                  =                                               40
 TIME [fs]                    =                                         4.000000
 CONSERVED QUANTITY [hartree] =                               0.728363127457E+00

                                              INSTANTANEOUS             AVERAGES
 CPU TIME [s]                 =                        0.01                 0.01
 ENERGY DRIFT PER ATOM [K]    =         -0.315358917520E-02  -0.481331029163E-02
 POTENTIAL ENERGY[hartree]    =          0.337030701728E+00   0.331988488604E+00
 KINETIC ENERGY [hartree]     =          0.391332425729E+00   0.396373335465E+00
 TEMPERATURE [K]              =                     333.530              337.826
 *******************************************************************************

 FOBSH| Put former active state           1 in new active state           1
 RANDOM_NUMBER_HOPPING_PROBA  0.67710379507336527     
 FOBSH| ACTIVE STATE =            1

 ENERGY| Total FORCE_EVAL ( MIXED ) energy (a.u.):             0.337797839917155

 FOBSH| CASE1: no hop and no trivial crossing
 ENTER integrator.F
 STEP NUMBER                  =           41
 CPU TIME [s]                 =    2.0020371302962303E-002   1.1232485040658855E-002

 *******************************************************************************
 ENSEMBLE TYPE                =                                              NVE
 STEP NUMBER                  =                                               41
 TIME [fs]                    =                                         4.100000
 CONSERVED QUANTITY [hartree] =                               0.728363603169E+00

                                              INSTANTANEOUS             AVERAGES
 CPU TIME [s]                 =                        0.02                 0.01
 ENERGY DRIFT PER ATOM [K]    =         -0.254787169476E-02  -0.475805569171E-02
 POTENTIAL ENERGY[hartree]    =          0.337797839917E+00   0.332130180100E+00
 KINETIC ENERGY [hartree]     =          0.390565763252E+00   0.396231687362E+00
 TEMPERATURE [K]              =                     332.877              337.706
 *******************************************************************************

 FOBSH| Put former active state           1 in new active state           1
 RANDOM_NUMBER_HOPPING_PROBA  0.84637635691237700     
 FOBSH| ACTIVE STATE =            1

 ENERGY| Total FORCE_EVAL ( MIXED ) energy (a.u.):             0.338558405383053

 FOBSH| CASE1: no hop and no trivial crossing
 ENTER integrator.F
 STEP NUMBER                  =           42
 CPU TIME [s]                 =    6.9091692566871643E-003   1.1129548950564290E-002

 *******************************************************************************
 ENSEMBLE TYPE                =                                              NVE
 STEP NUMBER                  =                                               42
[...]
 *******************************************************************************

 FOBSH| Put former active state           1 in new active state           1
 RANDOM_NUMBER_HOPPING_PROBA  0.70876005022369570     
 FOBSH| ACTIVE STATE =            1

 ENERGY| Total FORCE_EVAL ( MIXED ) energy (a.u.):             0.327760177531624

 FOBSH| CASE1: no hop and no trivial crossing
 ENTER integrator.F
 STEP NUMBER                  =          191
 CPU TIME [s]                 =    6.2987152487039566E-003   1.3241197523802366E-002

 *******************************************************************************
 ENSEMBLE TYPE                =                                              NVE
 STEP NUMBER                  =                                              191
 TIME [fs]                    =                                        19.100000
 CONSERVED QUANTITY [hartree] =                               0.728356807854E+00

                                              INSTANTANEOUS             AVERAGES
 CPU TIME [s]                 =                        0.01                 0.01
 ENERGY DRIFT PER ATOM [K]    =         -0.112002439700E-01  -0.338657046704E-02
 POTENTIAL ENERGY[hartree]    =          0.327760177532E+00   0.342742948272E+00
 KINETIC ENERGY [hartree]     =          0.400596630322E+00   0.385619996231E+00
 TEMPERATURE [K]              =                     341.426              328.661
 *******************************************************************************

 FOBSH| Put former active state           1 in new active state           1
 RANDOM_NUMBER_HOPPING_PROBA  0.68417013629977330     
 FOBSH| ACTIVE STATE =            1

 ENERGY| Total FORCE_EVAL ( MIXED ) energy (a.u.):             0.327704321213685

 FOBSH| CASE1: no hop and no trivial crossing
 ENTER integrator.F
 STEP NUMBER                  =          192
 CPU TIME [s]                 =    1.9036708399653435E-002   1.3271382476280756E-002

 *******************************************************************************
 ENSEMBLE TYPE                =                                              NVE
 STEP NUMBER                  =                                              192
 TIME [fs]                    =                                        19.200000
 CONSERVED QUANTITY [hartree] =                               0.728356677193E+00

                                              INSTANTANEOUS             AVERAGES
 CPU TIME [s]                 =                        0.02                 0.01
 ENERGY DRIFT PER ATOM [K]    =         -0.113666119332E-01  -0.342813318301E-02
 POTENTIAL ENERGY[hartree]    =          0.327704321214E+00   0.342664622089E+00
 KINETIC ENERGY [hartree]     =          0.400652355980E+00   0.385698289771E+00
 TEMPERATURE [K]              =                     341.473              328.728
 *******************************************************************************

 FOBSH| Put former active state           1 in new active state           1
 RANDOM_NUMBER_HOPPING_PROBA  0.15725300081740698     
 FOBSH| ACTIVE STATE =            1

 ENERGY| Total FORCE_EVAL ( MIXED ) energy (a.u.):             0.327745417911659

 FOBSH| CASE1: no hop and no trivial crossing
 ENTER integrator.F
 STEP NUMBER                  =          193
 CPU TIME [s]                 =    6.2008593231439590E-003   1.3234747641290411E-002

 *******************************************************************************
 ENSEMBLE TYPE                =                                              NVE
 STEP NUMBER                  =                                              193
 TIME [fs]                    =                                        19.300000
 CONSERVED QUANTITY [hartree] =                               0.728356602147E+00

                                              INSTANTANEOUS             AVERAGES
 CPU TIME [s]                 =                        0.01                 0.01
 ENERGY DRIFT PER ATOM [K]    =         -0.114621667408E-01  -0.346976029989E-02
 POTENTIAL ENERGY[hartree]    =          0.327745417912E+00   0.342587320513E+00
 KINETIC ENERGY [hartree]     =          0.400611184236E+00   0.385775558655E+00
 TEMPERATURE [K]              =                     341.438              328.794
 *******************************************************************************

 FOBSH| Put former active state           1 in new active state           1
 RANDOM_NUMBER_HOPPING_PROBA  0.99264665308187350     
 FOBSH| ATTEMPTED_HOP
 FOBSH| ACTIVE STATE =            1

 ENERGY| Total FORCE_EVAL ( MIXED ) energy (a.u.):             0.327884792697415

 FOBSH| Active state before the attempt to hop:           1
 FOBSH| Active state after the attempt to hop:           1
 FOBSH| CASE4: rejected hop and good overlap
 ENTER integrator.F
 STEP NUMBER                  =          194
 CPU TIME [s]                 =    1.9400747492909431E-002   1.3266531145680200E-002

 *******************************************************************************
 ENSEMBLE TYPE                =                                              NVE
 STEP NUMBER                  =                                              194
 TIME [fs]                    =                                        19.400000
 CONSERVED QUANTITY [hartree] =                               0.728356581247E+00

                                              INSTANTANEOUS             AVERAGES
 CPU TIME [s]                 =                        0.02                 0.01
 ENERGY DRIFT PER ATOM [K]    =         -0.114887792281E-01  -0.351109544901E-02
 POTENTIAL ENERGY[hartree]    =          0.327884792697E+00   0.342511534287E+00
 KINETIC ENERGY [hartree]     =          0.400471788549E+00   0.385851312417E+00
 TEMPERATURE [K]              =                     341.319              328.858
 *******************************************************************************

 FOBSH| Put former active state           1 in new active state           1
 RANDOM_NUMBER_HOPPING_PROBA  0.92811593670586945     
 FOBSH| ACTIVE STATE =            1

 ENERGY| Total FORCE_EVAL ( MIXED ) energy (a.u.):             0.328048723402560

 FOBSH| CASE1: no hop and no trivial crossing
 ENTER integrator.F
 STEP NUMBER                  =          195
 CPU TIME [s]                 =    6.1892811208963394E-003   1.3230237555809515E-002

 *******************************************************************************
 ENSEMBLE TYPE                =                                              NVE
 STEP NUMBER                  =                                              195
 TIME [fs]                    =                                        19.500000
 CONSERVED QUANTITY [hartree] =                               0.728356505717E+00

                                              INSTANTANEOUS             AVERAGES
 CPU TIME [s]                 =                        0.01                 0.01
 ENERGY DRIFT PER ATOM [K]    =         -0.115849501499E-01  -0.355249983209E-02
 POTENTIAL ENERGY[hartree]    =          0.328048723403E+00   0.342437366026E+00
 KINETIC ENERGY [hartree]     =          0.400307782314E+00   0.385925448160E+00
 TEMPERATURE [K]              =                     341.180              328.922
 *******************************************************************************

 FOBSH| Put former active state           1 in new active state           1
 RANDOM_NUMBER_HOPPING_PROBA  0.90000456599540779     
 FOBSH| ACTIVE STATE =            1

 ENERGY| Total FORCE_EVAL ( MIXED ) energy (a.u.):             0.328309635974027

 FOBSH| CASE1: no hop and no trivial crossing
 ENTER integrator.F
 STEP NUMBER                  =          196
 CPU TIME [s]                 =    1.9239472225308418E-002   1.3260896916368182E-002

 *******************************************************************************
 ENSEMBLE TYPE                =                                              NVE
 STEP NUMBER                  =                                              196
 TIME [fs]                    =                                        19.600000
 CONSERVED QUANTITY [hartree] =                               0.728356499432E+00

                                              INSTANTANEOUS             AVERAGES
 CPU TIME [s]                 =                        0.02                 0.01
 ENERGY DRIFT PER ATOM [K]    =         -0.115929533490E-01  -0.359352255411E-02
 POTENTIAL ENERGY[hartree]    =          0.328309635974E+00   0.342365285771E+00
 KINETIC ENERGY [hartree]     =          0.400046863458E+00   0.385997496197E+00
 TEMPERATURE [K]              =                     340.957              328.983
 *******************************************************************************

 FOBSH| Put former active state           1 in new active state           1
 RANDOM_NUMBER_HOPPING_PROBA  0.70112724644934465     
 FOBSH| ACTIVE STATE =            1

 ENERGY| Total FORCE_EVAL ( MIXED ) energy (a.u.):             0.328667274980372

 FOBSH| CASE1: no hop and no trivial crossing
 ENTER integrator.F
 STEP NUMBER                  =          197
 CPU TIME [s]                 =    5.6787896901369095E-003   1.3222409062427921E-002

 *******************************************************************************
 ENSEMBLE TYPE                =                                              NVE
 STEP NUMBER                  =                                              197
 TIME [fs]                    =                                        19.700000
 CONSERVED QUANTITY [hartree] =                               0.728356559597E+00

                                              INSTANTANEOUS             AVERAGES
 CPU TIME [s]                 =                        0.01                 0.01
 ENERGY DRIFT PER ATOM [K]    =         -0.115163456509E-01  -0.363373993024E-02
 POTENTIAL ENERGY[hartree]    =          0.328667274980E+00   0.342295752721E+00
 KINETIC ENERGY [hartree]     =          0.399689284617E+00   0.386066997661E+00
 TEMPERATURE [K]              =                     340.652              329.042
 *******************************************************************************

 FOBSH| Put former active state           1 in new active state           1
 RANDOM_NUMBER_HOPPING_PROBA  0.19167188808036800     
 FOBSH| ACTIVE STATE =            1

 ENERGY| Total FORCE_EVAL ( MIXED ) energy (a.u.):             0.329120362860762

 FOBSH| CASE1: no hop and no trivial crossing
 ENTER integrator.F
 STEP NUMBER                  =          198
 CPU TIME [s]                 =    1.9072085618972778E-002   1.3251952883420574E-002

 *******************************************************************************
 ENSEMBLE TYPE                =                                              NVE
 STEP NUMBER                  =                                              198
 TIME [fs]                    =                                        19.800000
 CONSERVED QUANTITY [hartree] =                               0.728356685364E+00

                                              INSTANTANEOUS             AVERAGES
 CPU TIME [s]                 =                        0.02                 0.01
 ENERGY DRIFT PER ATOM [K]    =         -0.113562089782E-01  -0.367274229917E-02
 POTENTIAL ENERGY[hartree]    =          0.329120362861E+00   0.342229210348E+00
 KINETIC ENERGY [hartree]     =          0.399236322503E+00   0.386133509403E+00
 TEMPERATURE [K]              =                     340.266              329.099
 *******************************************************************************

 FOBSH| Put former active state           1 in new active state           1
 RANDOM_NUMBER_HOPPING_PROBA   6.4974916287414405E-002
 FOBSH| ACTIVE STATE =            1

 ENERGY| Total FORCE_EVAL ( MIXED ) energy (a.u.):             0.329666613159327

 FOBSH| CASE1: no hop and no trivial crossing
 ENTER integrator.F
 STEP NUMBER                  =          199
 CPU TIME [s]                 =    5.7213939726352692E-003   1.3214110878843763E-002

 *******************************************************************************
 ENSEMBLE TYPE                =                                              NVE
 STEP NUMBER                  =                                              199
 TIME [fs]                    =                                        19.900000
 CONSERVED QUANTITY [hartree] =                               0.728356872805E+00

                                              INSTANTANEOUS             AVERAGES
 CPU TIME [s]                 =                        0.01                 0.01
 ENERGY DRIFT PER ATOM [K]    =         -0.111175430515E-01  -0.371015335822E-02
 POTENTIAL ENERGY[hartree]    =          0.329666613159E+00   0.342166081719E+00
 KINETIC ENERGY [hartree]     =          0.398690259645E+00   0.386196608650E+00
 TEMPERATURE [K]              =                     339.801              329.153
 *******************************************************************************

 FOBSH| Reordering: for state           8 old index was           9 with overlap  0.99972023876920146      and former   0.0000000000000000     
 FOBSH| Reordering: for state           9 old index was           8 with overlap -0.99998421478320598      and former   0.0000000000000000     
 FOBSH| New map:            1           2           3           4           5           6           7           9           8          10          11          12
 FOBSH| Put former active state           1 in new active state           1
 RANDOM_NUMBER_HOPPING_PROBA  0.26678893260939468     
 FOBSH| ACTIVE STATE =            1

 ENERGY| Total FORCE_EVAL ( MIXED ) energy (a.u.):             0.330302770243381

 FOBSH| CASE1: no hop and no trivial crossing
 ENTER integrator.F
 STEP NUMBER                  =          200
 CPU TIME [s]                 =    1.9242798909544945E-002   1.3244254318997268E-002

 *******************************************************************************
 ENSEMBLE TYPE                =                                              NVE
 STEP NUMBER                  =                                              200
 TIME [fs]                    =                                        20.000000
 CONSERVED QUANTITY [hartree] =                               0.728357121804E+00

                                              INSTANTANEOUS             AVERAGES
 CPU TIME [s]                 =                        0.02                 0.01
 ENERGY DRIFT PER ATOM [K]    =         -0.108004955499E-01  -0.374560506918E-02
 POTENTIAL ENERGY[hartree]    =          0.330302770243E+00   0.342106765162E+00
 KINETIC ENERGY [hartree]     =          0.398054351561E+00   0.386255897365E+00
 TEMPERATURE [K]              =                     339.259              329.203
 *******************************************************************************


 -------------------------------------------------------------------------------
 -                                                                             -
 -                                DBCSR STATISTICS                             -
 -                                                                             -
 -------------------------------------------------------------------------------
 COUNTER                                    TOTAL       BLAS       SMM       ACC
 flops total                                    0       0.0%      0.0%      0.0%
 flops max/rank                                 0       0.0%      0.0%      0.0%
 matmuls inhomo. stacks                         0       0.0%      0.0%      0.0%
 matmuls total                                  0       0.0%      0.0%      0.0%
 number of processed stacks                     0       0.0%      0.0%      0.0%
 average stack size                                     0.0       0.0       0.0
 marketing flops                     0.000000E+00
 -------------------------------------------------------------------------------

 MEMORY| Estimated peak process memory [MiB]                                 106

 -------------------------------------------------------------------------------
 -                                                                             -
 -                           R E F E R E N C E S                               -
 -                                                                             -
 -------------------------------------------------------------------------------
 
 CP2K version 4.0 (Development Version), the CP2K developers group (2015).
 CP2K is freely available from https://www.cp2k.org/ .

 Borstnik, U; VandeVondele, J; Weber, V; Hutter, J. 
 PARALLEL COMPUTING, 40 (5-6), 47-58 (2014). 
 Sparse matrix multiplication: The distributed block-compressed sparse
 row library.
 http://dx.doi.org/10.1016/j.parco.2014.03.012


 Hutter, J; Iannuzzi, M; Schiffmann, F; VandeVondele, J. 
 WILEY INTERDISCIPLINARY REVIEWS-COMPUTATIONAL MOLECULAR SCIENCE, 4 (1), 15-25 (2014). 
 CP2K: atomistic simulations of condensed matter systems.
 http://dx.doi.org/10.1002/wcms.1159


 Frigo, M; Johnson, SG. 
 PROCEEDINGS OF THE IEEE, 93 (2), 216-231 (2005). 
 The design and implementation of FFTW3.
 http://dx.doi.org/10.1109/JPROC.2004.840301


 -------------------------------------------------------------------------------
 -                                                                             -
 -                                T I M I N G                                  -
 -                                                                             -
 -------------------------------------------------------------------------------
 SUBROUTINE                       CALLS  ASD         SELF TIME        TOTAL TIME
                                MAXIMUM       AVERAGE  MAXIMUM  AVERAGE  MAXIMUM
 CP2K                                 1  1.0    0.033    0.033   24.078   24.078
 topology_control                     4  4.0    0.004    0.004   20.458   20.458
 connectivity_control                 4  5.0    0.059    0.059   20.302   20.302
 read_topology_psf                  512  6.0    8.764    8.764   20.241   20.241
 fist_create_force_env                3  2.0    0.000    0.000   13.738   13.738
 fist_init                            3  3.0    0.002    0.002   13.738   13.738
 parser_read_line                 11845  6.7    0.173    0.173   12.196   12.196
 parser_read_line_low               543  8.0   11.999   11.999   12.023   12.023
 mixed_create_force_env               1  2.0    0.000    0.000    7.561    7.561
 mixed_init                           1  3.0    0.000    0.000    7.561    7.561
 qs_mol_dyn_low                       1  2.0    0.014    0.014    2.695    2.695
 velocity_verlet                    200  3.0    0.872    0.872    1.523    1.523
 md_output                          200  3.0    0.001    0.001    1.140    1.140
 md_write_output                    201  4.0    1.045    1.045    1.098    1.098
 force_field_control                  3  4.0    0.000    0.000    0.835    0.835
 read_force_field_charmm              3  5.0    0.212    0.212    0.827    0.827
 fist_calc_energy_force             603  4.0    0.068    0.068    0.602    0.602
 -------------------------------------------------------------------------------

 The number of warnings for this run is : 1
 
 -------------------------------------------------------------------------------
  **** **** ******  **  PROGRAM ENDED AT                 2021-04-29 14:23:54.281
 ***** ** ***  *** **   PROGRAM RAN ON                   bulstake.phys.ucl.ac.uk
 **    ****   ******    PROGRAM RAN BY                                 sgiannini
 ***** **    ** ** **   PROGRAM PROCESS ID                                 12965
  **** **  *******  **  PROGRAM STOPPED IN /scratch/sgiannini/REG_TEST_MERGING/3
                                           7-071a0540f1_code_extension_V3_ADJ/ru
                                           n-fssh-3NAP-3ANT-3FF-FE-CT
