#     Step Nr.          Time[fs]        Kin.[a.u.]          Temp[K]            Pot.[a.u.]        Cons Qty[a.u.]        UsedTime[s]
         0            0.000000         0.000000000         0.000000000         0.512333763         0.512333763         0.000000000
         1            0.100000         0.000865421         0.737592050         0.511467718         0.512333139         0.126104635
         2            0.200000         0.003451719         2.941877198         0.508879556         0.512331276         0.017678473
         3            0.300000         0.007729132         6.587487370         0.504599064         0.512328196         0.029258854
         4            0.400000         0.013648461        11.632490917         0.498675477         0.512323938         0.028991329
         5            0.500000         0.021141680        18.018910686         0.491176875         0.512318554         0.026922585
         6            0.600000         0.030122778        25.673440119         0.482189333         0.512312111         0.027402196
         7            0.700000         0.040488821        34.508348320         0.471815868         0.512304688         0.042707299
         8            0.800000         0.052121219        44.422562641         0.460175159         0.512296378         0.044277630
         9            0.900000         0.064887191        55.302915098         0.447400090         0.512287281         0.031727495
        10            1.000000         0.078641403        67.025536876         0.433636108         0.512277512         0.028918208
        11            1.100000         0.093227752        79.457383309         0.419039437         0.512267189         0.017712319
        12            1.200000         0.108481289        92.457870087         0.403775150         0.512256439         0.016393777
        13            1.300000         0.124230246       105.880600065         0.388015149         0.512245396         0.020566051
        14            1.400000         0.140298145       119.575161783         0.371936050         0.512234195         0.016327181
        15            1.500000         0.156505952       133.388965955         0.355717019         0.512222971         0.031638296
        16            1.600000         0.172674264       147.169108825         0.339537598         0.512211861         0.028270282
        17            1.700000         0.188625502       160.764241740         0.323575500         0.512201002         0.045240179
        18            1.800000         0.204186072       174.026410307         0.308004454         0.512190526         0.017175534
        19            1.900000         0.219188465       186.812848876         0.292992094         0.512180559         0.016948555
        20            2.000000         0.233473283       198.987702619         0.278697937         0.512171220         0.018101861
        21            2.100000         0.246891153       210.423662618         0.265271469         0.512162623         0.019701445
        22            2.200000         0.259304517       221.003489097         0.252850351         0.512154868         0.017481430
        23            2.300000         0.270589264       230.621402189         0.241558784         0.512148048         0.031617201
        24            2.400000         0.280636189       239.184328305         0.231506054         0.512142242         0.045023601
        25            2.500000         0.289352266       246.612981832         0.222785252         0.512137518         0.032844675
        26            2.600000         0.296661708       252.842770605         0.215472218         0.512133926         0.017430808
        27            2.700000         0.302506814       257.824514504         0.209624693         0.512131507         0.018828204
        28            2.800000         0.306848573       261.524966224         0.205281709         0.512130282         0.018421163
        29            2.900000         0.309667042       263.927128883         0.202463218         0.512130261         0.017160437
        30            3.000000         0.310961480       265.030369397         0.201169956         0.512131436         0.016283945
        31            3.100000         0.310750233       264.850324913         0.201383552         0.512133785         0.045910456
        32            3.200000         0.309070387       263.418603909         0.203066884         0.512137272         0.029224428
        33            3.300000         0.305977184       260.782287536         0.206164660         0.512141844         0.033329283
        34            3.400000         0.301543199       257.003231924         0.210604240         0.512147439         0.016519624
        35            3.500000         0.295857309       252.157186270         0.216296668         0.512153977         0.018938170
        36            3.600000         0.289023457       246.332740426         0.223137912         0.512161369         0.017743122
        37            3.700000         0.281159225       239.630108610         0.231010290         0.512169515         0.017718893
        38            3.800000         0.272394238       232.159769588         0.239784068         0.512178306         0.032575009
        39            3.900000         0.262868422       224.040980711         0.249319203         0.512187624         0.029179963
        40            4.000000         0.252730131       215.400183615         0.259467216         0.512197347         0.045623088
        41            4.100000         0.242134176       206.369323253         0.270073168         0.512207344         0.017062319
        42            4.200000         0.231239779       197.084101799         0.280977706         0.512217485         0.015434810
        43            4.300000         0.220208467       187.682189637         0.292019169         0.512227637         0.020174233
        44            4.400000         0.209201958       178.301416042         0.303035707         0.512237665         0.016529748
        45            4.500000         0.198351534       169.053673160         0.313895908         0.512247443         0.019542199
        46            4.600000         0.187841423       160.095976671         0.324415416         0.512256839         0.028835810
        47            4.700000         0.177821359       151.555943497         0.334444374         0.512265733         0.032901229
        48            4.800000         0.168433082       143.554378407         0.343840927         0.512274009         0.030480723
        49            4.900000         0.159808503       136.203708135         0.352473058         0.512281561         0.027741852
        50            5.000000         0.152067999       129.606528628         0.360220292         0.512288291         0.017591315
        51            5.100000         0.145318860       123.854283077         0.366975252         0.512294113         0.016111240
        52            5.200000         0.139653914       119.026087630         0.372645038         0.512298952         0.018038736
        53            5.300000         0.135150338       115.187720368         0.377152409         0.512302747         0.014669309
        54            5.400000         0.131868680       112.390785753         0.380436769         0.512305450         0.032551124
        55            5.500000         0.129852097       110.672064966         0.382454931         0.512307027         0.027745072
        56            5.600000         0.129125815       110.053059951         0.383181646         0.512307461         0.031617378
        57            5.700000         0.129696838       110.539738826         0.382609909         0.512306747         0.029175125
        58            5.800000         0.131553881       112.122484493         0.380751015         0.512304896         0.017230501
        59            5.900000         0.134667553       114.776246073         0.377634381         0.512301934         0.018030684
        60            6.000000         0.138990767       118.460892310         0.373307135         0.512297903         0.016511794
        61            6.100000         0.144459389       123.121761818         0.367833466         0.512292855         0.016491364
        62            6.200000         0.150993103       128.690402180         0.361293755         0.512286858         0.015340261
        63            6.300000         0.158496487       135.085485797         0.353783507         0.512279994         0.016464903
        64            6.400000         0.166860292       142.213899926         0.345412062         0.512272354         0.016634651
        65            6.500000         0.175962903       149.971993706         0.336301135         0.512264038         0.019241311
        66            6.600000         0.185671960       158.246957615         0.326583198         0.512255158         0.017615745
        67            6.700000         0.195846118       166.918324017         0.316399714         0.512245832         0.017654951
        68            6.800000         0.206336927       175.859569832         0.305899256         0.512236183         0.016860448
        69            6.900000         0.216990802       184.939795037         0.295235537         0.512226339         0.016151560
        70            7.000000         0.227651061       194.025462262         0.284565370         0.512216431         0.031728533
        71            7.100000         0.238160019       202.982175579         0.274046572         0.512206590         0.029097162
        72            7.200000         0.248361076       211.676467978         0.263835872         0.512196948         0.042891825
        73            7.300000         0.258100816       219.977582519         0.254086817         0.512187633         0.016636760
        74            7.400000         0.267231044       227.759214124         0.244947725         0.512178769         0.016973279
        75            7.500000         0.275610772       234.901200077         0.236559703         0.512170475         0.043097054
        76            7.600000         0.283108119       241.291137718         0.229054744         0.512162862         0.031523957
        77            7.700000         0.289602080       246.825897351         0.222553954         0.512156034         0.028461403
        78            7.800000         0.294984174       251.413019624         0.217165909         0.512150083         0.017872989
        79            7.900000         0.299159917       254.971977014         0.212985173         0.512145091         0.016547521
        80            8.000000         0.302050128       257.435284394         0.210090997         0.512141125         0.027656989
        81            8.100000         0.303592035       258.749440864         0.208546212         0.512138246         0.044481594
        82            8.200000         0.303740163       258.875690034         0.208396330         0.512136493         0.029117273
        83            8.300000         0.302467019       257.790597619         0.209668876         0.512135894         0.017377455
        84            8.400000         0.299763531       255.486433245         0.212372933         0.512136464         0.017162632
        85            8.500000         0.295639263       251.971346950         0.216498937         0.512138199         0.017102939
        86            8.600000         0.290122377       247.269342707         0.222018707         0.512141084         0.016788229
        87            8.700000         0.283259371       241.420048942         0.228885715         0.512145086         0.018070401
        88            8.800000         0.275114569       234.478288997         0.237035594         0.512150162         0.044872798
        89            8.900000         0.265769382       226.513449746         0.246386862         0.512156244         0.030001202
        90            9.000000         0.255321356       217.608667077         0.256841915         0.512163270         0.029475187
        91            9.100000         0.243882987       207.859822521         0.268288160         0.512171146         0.017938564
        92            9.200000         0.231580371       197.374386255         0.280599408         0.512179779         0.016758637
        93            9.300000         0.218551673       186.270114911         0.293637390         0.512189063         0.016752342
        94            9.400000         0.204945419       174.673596786         0.307253462         0.512198881         0.016690056
        95            9.500000         0.190918664       162.718687790         0.321290449         0.512209113         0.032063276
        96            9.600000         0.176635038       150.544850020         0.335584592         0.512219630         0.030275976
        97            9.700000         0.162262713       138.295414441         0.349967588         0.512230301         0.030760619
        98            9.800000         0.147972296       126.115788868         0.364268696         0.512240992         0.042443600
        99            9.900000         0.133934693       114.151634679         0.378316875         0.512251569         0.032381093
       100           10.000000         0.120318958       102.547035636         0.391942938         0.512261897         0.028599681
       101           10.100000         0.107290162        91.442680229         0.404981684         0.512271846         0.041862879
       102           10.200000         0.095007303        80.974082381         0.417273987         0.512281289         0.018998439
       103           10.300000         0.083621292        71.269862872         0.428668815         0.512290107         0.014339790
       104           10.400000         0.073273035        62.450112929         0.439025152         0.512298187         0.042460035
       105           10.500000         0.064091627        54.624861003         0.448213797         0.512305424         0.030269265
       106           10.600000         0.056192704        47.892662428         0.456119022         0.512311726         0.027520498
       107           10.700000         0.049676951        42.339330013         0.462640060         0.512317011         0.016048455
       108           10.800000         0.044628797        38.036821900         0.467692413         0.512321210         0.029353997
       109           10.900000         0.041115310        35.042301064         0.471208956         0.512324266         0.027965598
       110           11.000000         0.039185314        33.397378533         0.473140825         0.512326139         0.032288156
       111           11.100000         0.038868723        33.127550081         0.473458080         0.512326803         0.028804969
       112           11.200000         0.040176118        34.241833829         0.472150127         0.512326244         0.018575948
       113           11.300000         0.043098562        36.732613528         0.469225906         0.512324468         0.028546542
       114           11.400000         0.047607663        40.575689690         0.464713830         0.512321493         0.042632963
       115           11.500000         0.053655873        45.730538082         0.458661480         0.512317353         0.030827088
       116           11.600000         0.061177034        52.140772590         0.451135063         0.512312097         0.015874806
       117           11.700000         0.070087153        59.734806801         0.442218635         0.512305787         0.015842487
       118           11.800000         0.080285407        68.426709973         0.432013091         0.512298497         0.040414400
       119           11.900000         0.091655345        78.117231843         0.420634975         0.512290320         0.030422634
       120           12.000000         0.104066295        88.695000251         0.408215057         0.512281352         0.030164219
       121           12.100000         0.117374953       100.037880042         0.394896749         0.512271703         0.014943489
       122           12.200000         0.131427129       112.014454810         0.380834360         0.512261490         0.029993028
       123           12.300000         0.146059621       124.485628798         0.366191217         0.512250838         0.018487021
       124           12.400000         0.161102211       137.306326059         0.351137667         0.512239878         0.015765106
       125           12.500000         0.176379743       150.327263675         0.335849000         0.512228743         0.017290648
       126           12.600000         0.191714270       163.396777999         0.320503300         0.512217570         0.030955832
       127           12.700000         0.206927231       176.362681688         0.305279266         0.512206497         0.018179825
       128           12.800000         0.221841634       189.074126515         0.290354024         0.512195658         0.029641768
       129           12.900000         0.236284226       201.383449894         0.275900961         0.512185186         0.016921634
       130           13.000000         0.250087611       213.147981781         0.262087600         0.512175210         0.044375280
       131           13.100000         0.263092298       224.231788762         0.249073554         0.512165852         0.027731818
       132           13.200000         0.275148650       234.507336371         0.237008574         0.512157224         0.031390989
       133           13.300000         0.286118705       243.857039907         0.226030730         0.512149434         0.041732665
       134           13.400000         0.295877853       252.174695585         0.216264724         0.512142576         0.017164809
       135           13.500000         0.304316358       259.366776869         0.207820377         0.512136735         0.016843206
       136           13.600000         0.311340681       265.353560139         0.200791296         0.512131977         0.015726442
       137           13.700000         0.316874597       270.070079366         0.195253760         0.512128358         0.015616804
       138           13.800000         0.320860104       273.466899781         0.191265819         0.512125923         0.016339565
       139           13.900000         0.323258104       275.510699111         0.188866599         0.512124704         0.014688486
       140           14.000000         0.324048855       276.184650350         0.188075852         0.512124707         0.015776077
       141           14.100000         0.323232169       275.488594409         0.188893765         0.512125934         0.043656911
       142           14.200000         0.320827379       273.439008060         0.191300987         0.512128365         0.029776612
       143           14.300000         0.316873055       270.068764509         0.195258914         0.512131969         0.027934805
       144           14.400000         0.311426482       265.426687036         0.200710216         0.512136697         0.043501419
       145           14.500000         0.304562906       259.576908198         0.207579583         0.512142489         0.029101706
       146           14.600000         0.296374564       252.598039741         0.215774706         0.512149271         0.029466111
       147           14.700000         0.286969496       244.582163171         0.225187460         0.512156955         0.043632681
       148           14.800000         0.276470169       235.633657565         0.235695279         0.512165447         0.028337696
       149           14.900000         0.265011909       225.867860539         0.247162723         0.512174633         0.031073770
       150           15.000000         0.252741185       215.409605104         0.259443217         0.512184402         0.042453141
       151           15.100000         0.239813768       204.391654910         0.272380862         0.512194630         0.028463111
       152           15.200000         0.226392770       192.953029192         0.285812418         0.512205188         0.031093178
       153           15.300000         0.212646593       181.237255098         0.299569353         0.512215946         0.028162982
       154           15.400000         0.198746811       169.390565222         0.313479954         0.512226765         0.043792693
       155           15.500000         0.184866023       157.560062999         0.327371490         0.512237513         0.028136113
       156           15.600000         0.171175697       145.891890437         0.341072359         0.512248056         0.032135717
       157           15.700000         0.157844042       134.529411130         0.354414221         0.512258263         0.016641838
       158           15.800000         0.145033917       123.611427812         0.367234091         0.512268007         0.017205681
       159           15.900000         0.132900810       113.270462752         0.379376359         0.512277169         0.015138668
       160           16.000000         0.121590922       103.631121824         0.390694713         0.512285635         0.016215178
       161           16.100000         0.111239367        94.808561126         0.401053936         0.512293302         0.016001019
       162           16.200000         0.101968514        86.907075525         0.410331563         0.512300077         0.014546762
       163           16.300000         0.093886499        80.018828906         0.418419378         0.512305877         0.027224325
       164           16.400000         0.087085920        74.222741291         0.425224714         0.512310634         0.043129225
       165           16.500000         0.081642727        69.583545022         0.430671564         0.512314291         0.040133421
       166           16.600000         0.077615331        66.151022046         0.434701476         0.512316806         0.031259323
       167           16.700000         0.075043927        63.959431793         0.437274226         0.512318153         0.029099745
       168           16.800000         0.073950060        63.027136547         0.438368258         0.512318318         0.043914059
       169           16.900000         0.074336420        63.356428674         0.437980883         0.512317303         0.030228099
       170           17.000000         0.076186878        64.933561533         0.436128248         0.512315126         0.021495044
       171           17.100000         0.079466761        67.728983404         0.432845058         0.512311819         0.015861027
       172           17.200000         0.084123359        71.697771065         0.428184068         0.512307427         0.042733571
       173           17.300000         0.090086667        76.780257716         0.422215345         0.512302012         0.030784508
       174           17.400000         0.097270329        82.902844484         0.415025315         0.512295644         0.032933488
       175           17.500000         0.105572805        89.978988454         0.406715605         0.512288410         0.044456271
       176           17.600000         0.114878716        97.910353757         0.397401688         0.512280404         0.033581316
       177           17.700000         0.125060369       106.588108096         0.387211362         0.512271731         0.034224059
       178           17.800000         0.135979427       115.894347659         0.376283076         0.512262503         0.032412465
       179           17.900000         0.147488712       125.703633313         0.364764130         0.512252842         0.041737420
       180           18.000000         0.159434122       135.884625190         0.352808750         0.512242872         0.031427542
       181           18.100000         0.171656637       146.301792263         0.340576086         0.512232723         0.030154467
       182           18.200000         0.183994380       156.817167369         0.328228145         0.512222525         0.051167430
       183           18.300000         0.196284704       167.292127229         0.315927708         0.512212412         0.031919457
       184           18.400000         0.208366285       177.589177381         0.303836226         0.512202511         0.024536693
       185           18.500000         0.220081204       187.573723959         0.292111746         0.512192950         0.043136455
       186           18.600000         0.231276980       197.115808336         0.280906871         0.512183851         0.032161436
       187           18.700000         0.241808521       206.091769114         0.270366810         0.512175330         0.043273413
       188           18.800000         0.251539974       214.385820876         0.260627524         0.512167497         0.028622089
       189           18.900000         0.260346466       221.891535097         0.251813987         0.512160454         0.031368613
       190           19.000000         0.268115700       228.513200573         0.244038587         0.512154287         0.016437151
       191           19.100000         0.274749382       234.167042685         0.237399693         0.512149075         0.017450281
       192           19.200000         0.280164467       238.782283580         0.231980417         0.512144884         0.016815651
       193           19.300000         0.284294210       242.302034909         0.227847557         0.512141767         0.017491656
       194           19.400000         0.287088997       244.684013030         0.225050764         0.512139761         0.015851420
       195           19.500000         0.288516972       245.901066422         0.223621920         0.512138892         0.017158774
       196           19.600000         0.288564420       245.941506727         0.223574749         0.512139169         0.028576230
       197           19.700000         0.287235932       244.809244867         0.224904657         0.512140588         0.042871993
       198           19.800000         0.284554320       242.523725038         0.227588809         0.512143129         0.030149685
       199           19.900000         0.280560308       239.119655780         0.231586450         0.512146758         0.043741752
       200           20.000000         0.275311985       234.646545541         0.236839441         0.512151426         0.032843267
