   15360
 i =   901000, time =   450500.000, E =        22.5207045808
  C         9.0233664804        6.1461697502       12.3295312216
  C         9.7869739985        6.9722696266       11.5365726010
  C        10.1328132387        6.6356254091       10.2352779119
  C        10.8519686104        7.5141750287        9.4274827606
  C         9.8193427799        5.2280270109        9.7536835515
  C         9.0691876154        4.3577391305       10.6359952232
  C         8.6808787985        4.8435215804       11.8980319430
  H         8.7326245965        6.5326287774       13.3431478667
  H        10.0900488010        7.9074701603       11.9522370910
  H        11.0827726231        8.5075020788        9.7365135984
  H         8.8872258513        3.3508510478       10.2622424188
  H         8.0674173812        4.1486746849       12.4972992812
  C        11.3282176505        6.9860320634        8.1699046416
  C        10.2391763141        4.7136039911        8.4907543248
  C        11.0186406169        5.5751841599        7.7384906583
  C        12.1169195090        7.8256318677        7.3482845379
  H        10.0359997640        3.6643569268        8.1930524590
  C        11.5189817546        5.1535331633        6.4966388415
  C        12.5356300316        7.4227790519        6.0878619020
  H        12.2509968521        8.7992820157        7.6386747735
  C        12.2409923394        6.0790110730        5.6856753703
  H        11.3909995178        4.1600044936        6.1175837658
  H        13.0485955514        8.1402326268        5.5195584656
  H        12.6474744248        5.7709825945        4.7426562972
  C         8.1777527978        9.3934850962        5.4712079269
  C         7.2558098875       10.1095838560        6.3270591772
  C         6.8700270578        9.6322109509        7.5616710109
  C         6.1409287340       10.4513624228        8.4839372324
  C         7.4495517333        8.2572479033        8.0551094240
  C         8.3522599761        7.5894252206        7.1566437846
  C         8.6648264450        8.1200224624        5.9274169932
  H         8.4333511775        9.8158830485        4.5391625290
  H         7.0161973119       11.0905018030        6.0085198264
  H         5.7037411624       11.3689554700        8.1273982033
  H         8.6665165690        6.5786778421        7.4200765171
  H         9.3144733249        7.5096367951        5.2889344466
  C         5.9041675951        9.9806654770        9.8113052187
  C         7.1247494441        7.7945012121        9.3197224502
  C         6.3092347405        8.5936272299       10.2442841466
  C         5.1491610392       10.7251095213       10.7357254991
  H         7.3918867887        6.7988715036        9.6022893528
  C         6.0206401474        8.1113218670       11.5194194659
  C         4.9234462554       10.2245284132       12.0187614170
  H         4.7977963300       11.6805935781       10.4439540456
  C         5.2566016729        8.8819975894       12.3801249245
  H         6.3539720384        7.1529853145       11.7977030818
  H         4.2825199559       10.8632153827       12.5817099903
  H         4.9802881333        8.4644376248       13.3447602909
  C         2.4462466543        6.4895117621       21.5803726925
  C         3.3227667866        7.2929288864       20.8774143145
  C         3.7712969148        6.8758478883       19.6583355891
  C         4.5553628274        7.7226371460       18.8650028484
  C         3.3584564092        5.5469988456       19.1263297654
  C         2.5152742538        4.6916368046       19.9121955265
  C         2.0428277428        5.2386474382       21.1613902134
  H         2.1023950031        6.7713889491       22.5765029858
  H         3.5936126711        8.2840209545       21.3499650546
  H         4.7665029684        8.6391210870       19.2062959019
  H         2.2939428032        3.6940817089       19.6497922583
  H         1.4722356295        4.6596872604       21.8521822568
  C         5.0304026753        7.3251534080       17.6272099002
  C         3.9192525757        5.0756436141       17.9272436524
  C         4.7602199275        5.9101193995       17.1807305658
  C         5.8051046245        8.1972184462       16.7843927722
  H         3.7145347827        4.0950503816       17.5650163601
  C         5.3547550765        5.4322154004       15.9802274012
  C         6.4102656807        7.6399530049       15.6305350792
  H         5.9520279252        9.1867849181       17.0933568760
  C         6.1872282944        6.3243556954       15.2558829923
  H         5.2230344722        4.3974128293       15.5406834295
  H         7.0254445891        8.2791555590       14.9977441800
  H         6.6673961247        5.9980987411       14.3327519021
  C         1.6146041664        8.9459675520       14.0198979953
  C         0.9372389860        9.8507928730       14.8647743867
  C         0.5940023245        9.5114778272       16.1510411837
  C        -0.1692727166       10.3132584899       16.9876267456
  C         1.0525442320        8.1782631490       16.6569763140
  C         1.8022799413        7.3638575196       15.7477009425
  C         2.1093933963        7.7736616875       14.4417647483
  H         1.9028455142        9.1902517297       12.9961332500
  H         0.5821071725       10.7698797348       14.4595488129
  H        -0.4950263876       11.2286122940       16.6030514048
  H         2.2274935474        6.4813962346       16.1011922800
  H         2.5878496482        7.1587928629       13.7186411366
  C        -0.4654925267        9.8923718351       18.3111592467
  C         0.7899435103        7.6895445899       17.9787277811
  C         0.0166337517        8.5372675894       18.7723392963
  C        -1.2303959089       10.8265668866       19.0750495158
  H         1.1673809421        6.7622074167       18.3720972217
  C        -0.3282198296        8.2585205439       20.1108094871
  C        -1.6130974883       10.4355075125       20.3416656716
  H        -1.5425905292       11.7278511304       18.6954020205
  C        -1.1844157244        9.2046623827       20.8415269513
  H         0.0874968578        7.3113510720       20.6115232403
  H        -2.1412185773       11.0687175054       21.0196830234
  H        -1.4516350533        9.0145197444       21.9368757104
  C         9.4552342095       12.5051486902       12.4395341895
  C        10.1845994910       13.2532120488       11.5307539030
  C        10.5013016399       12.7632850421       10.2548595086
  C        11.2769103412       13.4915233719        9.2774773971
  C         9.8640931193       11.4599792890        9.8709824325
  C         9.1504963557       10.7239047875       10.8569119930
  C         8.9137712793       11.2525517071       12.1595247548
  H         9.1422649587       12.9344458397       13.3512300917
  H        10.6960278601       14.1861414190       11.9243128526
  H        11.6843724766       14.4028783794        9.6585738605
  H         8.6633167112        9.7789546308       10.5891539376
  H         8.3260734868       10.7612988480       12.8373458775
  C        11.4889451389       12.9893440273        7.9842541730
  C        10.1614699593       10.9342872177        8.6075049062
  C        10.9405920711       11.6285673983        7.6452077098
  C        12.2472026666       13.7099791722        7.0548060485
  H         9.8588294714        9.9154679617        8.3019848787
  C        11.3308020406       11.0739531617        6.4154189182
  C        12.5140149925       13.1573965070        5.8041702697
  H        12.6797692464       14.6630837803        7.2946573293
  C        12.0429837331       11.8853939888        5.4825748603
  H        10.9556628856       10.1017317829        6.1027039966
  H        13.0643484836       13.7797204286        5.0776002357
  H        12.2609430710       11.4079380844        4.5410277277
  C         8.3980121225       15.5182342882        5.7145902331
  C         7.6363510287       16.2851309206        6.5639174382
  C         7.2179015423       15.7333791966        7.7878220462
  C         6.3944387028       16.4799632854        8.6506160527
  C         7.5930154062       14.2661811858        8.1341700607
  C         8.3125249628       13.4723452373        7.1369867544
  C         8.7134900016       14.1546018375        5.9523847108
  H         8.6928970762       15.9552820818        4.7696917539
  H         7.2885377349       17.2788227443        6.3198817356
  H         6.0563675830       17.4620734833        8.3894398203
  H         8.5943226363       12.4426928650        7.2270831396
  H         9.3716958501       13.7185604889        5.2015898472
  C         5.9184728803       15.8868590185        9.8153604106
  C         7.1806399555       13.6821518237        9.3076751507
  C         6.3062342883       14.4216847467       10.1468850570
  C         5.1108227453       16.5952841871       10.6461155231
  H         7.3766023726       12.6726207038        9.5384975228
  C         5.8068605357       13.9147369000       11.3419410983
  C         4.5879751334       15.9729277347       11.7705729967
  H         4.8252170867       17.5907507493       10.4206264893
  C         4.8596064428       14.6652282372       12.1088344512
  H         6.1056399939       12.9070508817       11.6879731663
  H         3.9053631765       16.4285323054       12.4613986057
  H         4.4125364457       14.2451265970       13.0067541074
  C         2.7839828831       12.4317227739       21.5775044443
  C         3.6105430894       13.2609016335       20.7928905195
  C         4.0907193228       12.7605260292       19.5445493629
  C         4.8216705028       13.6380682752       18.7680485686
  C         3.6868791276       11.3880233261       19.1146024606
  C         2.9125951354       10.6332838433       19.9773327506
  C         2.4695834487       11.1426366834       21.1746368736
  H         2.4427668991       12.7646983533       22.5583870458
  H         3.8560136385       14.2613533058       21.0758458840
  H         5.0482630664       14.6694929552       19.0183914588
  H         2.6406560643        9.5785596297       19.7381640056
  H         1.9507094836       10.5685632173       21.8441760081
  C         5.2266026996       13.2084744687       17.4556658534
  C         4.1461880330       11.0002911275       17.8515950307
  C         4.8425260866       11.8965938340       17.0113206115
  C         5.9864530265       14.0412105045       16.6211519575
  H         3.9461842821       10.0501020749       17.4022414261
  C         5.2997487915       11.4756457289       15.7072146902
  C         6.3614080998       13.6268506514       15.3310226951
  H         6.2488361735       15.0592726844       16.9333889925
  C         5.9943607671       12.3494463939       14.8773773216
  H         5.0600237033       10.4967596767       15.3594395346
  H         6.8963295394       14.2889740080       14.7793967390
  H         6.3298046275       12.0914317712       13.8554672047
  C         1.6045328291       15.0339152438       14.5408720205
  C         0.7880940310       15.8229731041       15.3332784823
  C         0.4202487541       15.4612395153       16.6821115042
  C        -0.3360598991       16.3468606055       17.5614275321
  C         0.8832300597       14.0803683004       17.1641074581
  C         1.7500434700       13.2951113888       16.3588526559
  C         2.1319090174       13.7712741995       15.0819129042
  H         1.7983842464       15.3109595001       13.5108878770
  H         0.5220241321       16.8219903868       14.9137640551
  H        -0.6350740755       17.3021130006       17.2147781734
  H         1.9823135996       12.2909420570       16.6785124349
  H         2.7757514859       13.0637029517       14.4657914253
  C        -0.6858309691       15.8714548813       18.8646677228
  C         0.5210023877       13.6306063378       18.4522586443
  C        -0.2396617852       14.4823974571       19.3062438325
  C        -1.4491390578       16.7322996494       19.6819645610
  H         0.9523872901       12.7168606553       18.8455489494
  C        -0.6314555015       14.0378514809       20.6046291720
  C        -1.6851025638       16.2768223143       20.9741731663
  H        -1.6974709150       17.6820565369       19.3587705382
  C        -1.3235714016       14.9882787688       21.4453472182
  H        -0.3128343063       13.0282398993       20.9595376103
  H        -2.1761308739       16.9341048062       21.5895666499
  H        -1.6250041096       14.6552121455       22.4174715137
  C         8.9131984184       18.7476320516       12.4755745943
  C         9.7069985667       19.4518740411       11.5877674276
  C        10.3035147927       18.8030871536       10.4587373399
  C        11.0970138772       19.6191055049        9.6388955370
  C         9.8066147637       17.4196248509       10.1489408749
  C         9.0167343316       16.7268536766       11.0656220916
  C         8.6361748229       17.4133781396       12.2656857815
  H         8.5614840663       19.3119526839       13.3006879691
  H         9.8893552176       20.4873690597       11.9103116905
  H        11.2578294422       20.6672052848        9.9237737767
  H         8.6032564551       15.7246365011       10.8635058238
  H         8.0466830164       16.8588769194       13.0329009808
  C        11.5184448603       19.0204248168        8.4553400381
  C        10.2019962578       16.8766521828        8.9396788224
  C        11.0627582417       17.6387642790        8.0683700606
  C        12.2644245409       19.7693319925        7.5448533218
  H         9.8967250877       15.8391832601        8.6052579971
  C        11.4662557027       17.1675585271        6.8526065668
  C        12.6668833807       19.1889358090        6.2978162496
  H        12.4673807394       20.8383400391        7.7862251633
  C        12.2313359606       17.8896424961        5.9703959646
  H        11.1482949459       16.1653900948        6.5583342973
  H        13.3326569154       19.6649081027        5.5302386104
  H        12.4671141550       17.4078813358        5.0706027229
  C         8.8342033858       21.7245772995        5.1713600036
  C         7.9409214591       22.5535815705        5.9733124468
  C         7.4449306675       22.0631452998        7.2215821056
  C         6.7004274772       22.8297856539        8.1139989309
  C         7.7925340292       20.5967166743        7.5678574839
  C         8.6288018358       19.8409627763        6.6923453142
  C         9.0802474331       20.4216006231        5.5314303224
  H         9.2767540741       22.1577269626        4.2816001252
  H         7.6848400043       23.5182460910        5.6194727316
  H         6.3178976965       23.8117799952        7.8061182556
  H         8.8850622289       18.8487762859        6.9734123606
  H         9.7799345681       19.8823598084        4.9027150788
  C         6.2010775529       22.2088293785        9.2731009025
  C         7.3088813323       20.0283623921        8.7099138535
  C         6.5760521440       20.7980560216        9.5945618477
  C         5.3486319831       22.9185409100       10.1257090190
  H         7.4876218918       18.9881263517        8.9663690880
  C         6.0433537277       20.2075548658       10.7998963514
  C         4.8099608549       22.1977853481       11.2762535895
  H         5.0164398151       23.9242700498        9.9219335124
  C         5.1894651771       20.8910749958       11.6612966224
  H         6.3331751427       19.2580457435       11.0401690168
  H         4.1335035484       22.7405077089       11.8794543853
  H         4.8290975888       20.4099089367       12.5835644133
  C         2.8257481009       18.5217794456       22.0145200320
  C         3.5273206717       19.2844123719       21.0898163558
  C         3.6957664845       18.7505447306       19.7945736794
  C         4.4356794434       19.5462386632       18.8682594533
  C         3.1910757456       17.4214065850       19.3972638099
  C         2.3816475372       16.7034813819       20.3094388314
  C         2.2773730181       17.2397712692       21.5974711927
  H         2.5717313631       18.8594391477       22.9935706390
  H         3.8907677507       20.2058999702       21.4989945582
  H         4.8462961348       20.5149854022       19.1184534406
  H         1.9210038267       15.7910119551       20.0953502189
  H         1.7149136679       16.6019409450       22.2163022058
  C         4.6945042738       18.9338318657       17.6052976537
  C         3.4739713102       16.8185192333       18.1330050934
  C         4.1750991249       17.5445123080       17.2294514926
  C         5.4876326478       19.5979136992       16.6478321284
  H         3.0901963423       15.8034015693       17.9480359971
  C         4.6073226529       16.9694801971       15.9663256543
  C         5.8857627115       18.9985073761       15.4275557785
  H         5.8464508390       20.6514682237       16.7663236691
  C         5.4603560865       17.7216435912       15.1220343202
  H         4.3282217221       15.9950498411       15.6663978269
  H         6.4781430653       19.5603051648       14.7192709082
  H         5.7794074838       17.2695205786       14.1864118020
  C         1.8445763287       20.9007494794       14.4419368871
  C         1.1427173838       21.8467224041       15.2678902091
  C         0.6786872045       21.4823297301       16.5537692997
  C        -0.0302190380       22.3964198375       17.3494928631
  C         0.9823280504       20.0719240542       17.0267207845
  C         1.5939632353       19.1361855386       16.1649230896
  C         2.0800095685       19.6209193632       14.9541808607
  H         2.1587793285       21.1993587722       13.4687036735
  H         0.9113936545       22.8736018232       15.0133385066
  H        -0.2708798451       23.4145887866       17.0524882530
  H         1.7201925974       18.1004627877       16.4329724269
  H         2.5691987628       18.9442102508       14.2921161100
  C        -0.3161612539       21.9805635172       18.6339181636
  C         0.6061903164       19.6518568197       18.3285052809
  C         0.0327478203       20.6165206014       19.1432962260
  C        -1.0794544832       22.7900459873       19.4803004092
  H         0.8053747642       18.6600783237       18.6580031716
  C        -0.2263713448       20.2507062293       20.4818761689
  C        -1.3712228866       22.3700286559       20.7177895262
  H        -1.4420898320       23.7719357726       19.1721602553
  C        -0.9310088483       21.1718042675       21.2630529408
  H        -0.0338984776       19.2948231769       20.8600021136
  H        -1.8579210240       23.1080414433       21.3640725812
  H        -1.1900942703       20.8235836166       22.2817608965
  C         9.4981970848       24.6792823674       11.8988478954
  C        10.1780698119       25.5707478676       11.0870705758
  C        10.7750624717       25.1801080723        9.8980780401
  C        11.5453433957       26.1037927038        9.1155367751
  C        10.5230268359       23.8045902877        9.4506365690
  C         9.7682982475       22.9354457939       10.2786079554
  C         9.2878430161       23.3358973293       11.4889569725
  H         9.0602495115       24.9912206984       12.8924825800
  H        10.3470323828       26.5663807549       11.4335230446
  H        11.7360642759       27.1514888227        9.3771816160
  H         9.4880572657       21.9407639004        9.9400151724
  H         8.8116953283       22.5289929963       12.1703980929
  C        12.0728242568       25.5934814187        7.8881784093
  C        11.0267655177       23.3540000492        8.2673803571
  C        11.7729180284       24.2020904092        7.4571517566
  C        12.8332566698       26.4436214777        7.0828845011
  H        10.8791816928       22.3149481202        7.9788770806
  C        12.2405875262       23.7305542845        6.2005002259
  C        13.3418912482       25.8519094812        5.8992502990
  H        13.0336583493       27.4799777514        7.3800421570
  C        13.0516304116       24.5519541660        5.4179454938
  H        12.0663477841       22.7339265305        5.7574532215
  H        13.9230667623       26.5144914986        5.2375859933
  H        13.4777404270       24.2668542330        4.5091984890
  C         8.1624914007       27.6180799109        5.3855649063
  C         7.3625593657       28.4612781182        6.1630104762
  C         7.0088647239       27.9892813086        7.4670753329
  C         6.2993706848       28.8031768843        8.3503300022
  C         7.4629282239       26.6317462926        7.9342015484
  C         8.3175097673       25.9125063441        7.0974545505
  C         8.6294912228       26.3595053599        5.7967836810
  H         8.4615220506       27.9114387684        4.4262515740
  H         7.0721625901       29.4215327551        5.7715328445
  H         6.0261054441       29.7214317213        8.1078550132
  H         8.6764777698       24.9048723348        7.4583942576
  H         9.2179917080       25.6939165803        5.0934534010
  C         5.9636143388       28.3537520144        9.6184389300
  C         7.0349523350       26.1250661176        9.2030456860
  C         6.2348595957       26.9526140929       10.0402153195
  C         5.1435597399       29.1505821822       10.5069625622
  H         7.3619644328       25.1500980673        9.5401193243
  C         5.7435380220       26.4560885812       11.2572801755
  C         4.5470104539       28.5072044764       11.6698142465
  H         4.8573314275       30.1175518993       10.3045179734
  C         4.8666297975       27.1847697774       12.0288646925
  H         5.9246983047       25.4394300496       11.5648488800
  H         3.8820632818       29.1036398056       12.3014240056
  H         4.4039457288       26.7116109581       12.9082852994
  C         3.3063540686       24.6399938516       21.0300286102
  C         4.1278601471       25.3822646385       20.1414042862
  C         4.3667588798       24.8348600608       18.8325320303
  C         5.1867892042       25.5014625774       17.9496570838
  C         3.7851891882       23.4497148588       18.5317917356
  C         3.0962546154       22.7375313966       19.5365440204
  C         2.8335664613       23.3659664409       20.7375744943
  H         3.0743327298       25.0795405597       22.0250211963
  H         4.5352635120       26.3396160085       20.3937030577
  H         5.6133641760       26.5152606722       18.0503057799
  H         2.7517446989       21.7412312248       19.3410987914
  H         2.2009728185       22.9115306632       21.4571794734
  C         5.4003719570       24.8748148575       16.7406762358
  C         4.0127176992       22.8920281779       17.2795103333
  C         4.7860426784       23.6235946993       16.4073542488
  C         6.2089456446       25.5320796969       15.7328464409
  H         3.6233727967       21.9035938219       16.9567108095
  C         4.9557915388       23.0715669581       15.1043236540
  C         6.4443776759       24.9184539708       14.5103610526
  H         6.5935412675       26.5865874781       15.9337083921
  C         5.8427323121       23.6807561165       14.2220293667
  H         4.4966303532       22.1427979956       14.8438155423
  H         6.9852281276       25.4311796878       13.7568584968
  H         5.9285850256       23.3175264767       13.2063392101
  C         1.6492705724       27.3920560340       14.5875630962
  C         0.9542640598       28.1931421509       15.4893518139
  C         0.5791628076       27.6789884748       16.7282909434
  C        -0.1889436845       28.3636149478       17.6909935960
  C         1.1697973639       26.3132666327       17.1261068760
  C         1.9456063044       25.5589138737       16.2072276230
  C         2.0781979777       26.0886039942       14.9361211707
  H         1.7908812158       27.8297034054       13.6141698108
  H         0.6488649126       29.1914947426       15.2031855019
  H        -0.6183508439       29.3445992444       17.3190555264
  H         2.4019815239       24.6109608468       16.4521081154
  H         2.6019490013       25.4831943445       14.1842562825
  C        -0.4476955473       27.8235661388       18.9851226207
  C         0.8969015854       25.7374649687       18.3595786942
  C         0.0469171503       26.4067875505       19.2601324939
  C        -1.2798622381       28.5107403905       19.8529471261
  H         1.3282712313       24.7615079337       18.6017058017
  C        -0.3502648011       25.8669919600       20.4689920115
  C        -1.6469746465       27.8944686166       21.0443064857
  H        -1.6827750946       29.4349230908       19.6064433357
  C        -1.1418257567       26.6302757591       21.3709504804
  H         0.0532477532       24.9465244986       20.7672842161
  H        -2.2672191018       28.4015919987       21.7431453984
  H        -1.4022250208       26.3446061630       22.3527771275
  C         9.5017363857       30.7537553065       11.8088510537
  C        10.5210757100       31.3872346316       11.1154998852
  C        10.8736452369       30.9711946877        9.8293669928
  C        11.8505600783       31.6615569286        9.1491659990
  C        10.1419471172       29.7634288440        9.3109360649
  C         9.1273472233       29.0775263718       10.0806975961
  C         8.8149965529       29.6165454288       11.3008987020
  H         9.2381404317       31.2120066337       12.7186897793
  H        10.9996860729       32.2299176672       11.6331864359
  H        12.3643740479       32.5030386684        9.5891325706
  H         8.6947478445       28.2232262344        9.6872307612
  H         8.0556258101       29.1446813553       11.9237974362
  C        12.1757718658       31.1814018554        7.8514394907
  C        10.5241671364       29.2558718370        8.0310892958
  C        11.5201956725       29.9427331655        7.3484814835
  C        13.0447780508       31.9041181494        6.9637868660
  H         9.9501958004       28.4933857285        7.5906039651
  C        11.9370668362       29.4587341427        6.0985082774
  C        13.3744347832       31.4291554271        5.6791188631
  H        13.5416236090       32.7604983518        7.3399071577
  C        12.8042724248       30.1922220664        5.2408998812
  H        11.5363556504       28.5994385997        5.6436967285
  H        14.0656325435       31.9413710524        5.0122344215
  H        13.0680474796       29.7784065476        4.2606054313
  C         8.3147151425       33.7034158813        5.2321079890
  C         7.5612354754       34.5100248237        6.0969957466
  C         7.1858672817       33.9846786465        7.3332521419
  C         6.2889182007       34.6909231683        8.1800214831
  C         7.6926826369       32.6359737526        7.7779909519
  C         8.4829230749       31.9304934895        6.8844421398
  C         8.7648552468       32.4671009357        5.5948148529
  H         8.6081829438       34.0806198694        4.2803829606
  H         7.2748073179       35.5097118040        5.7748752444
  H         5.9121798337       35.6188928963        7.7638370596
  H         8.7660045880       30.8953799651        7.1557746890
  H         9.4619051185       32.0573590723        4.8295237511
  C         5.9051404909       34.1901552021        9.4196895720
  C         7.3464928112       32.0944043725        9.0472204254
  C         6.4870701796       32.8795775925        9.8790719542
  C         5.1032830411       34.8892257648       10.3215553195
  H         7.6925913655       31.1762561350        9.4329205512
  C         6.2213046438       32.4645254170       11.2207906999
  C         4.8063696861       34.4543476223       11.5478446185
  H         4.7747788317       35.8852172150       10.0629559564
  C         5.3834818926       33.2617622500       11.9922355783
  H         6.5648722258       31.5024436942       11.5693184363
  H         4.2212197887       35.1141795456       12.1729098720
  H         5.1454217082       33.0100761752       12.9976568931
  C         3.1869681292       30.4555125878       21.3969698255
  C         4.0956460319       31.2162825697       20.6122340788
  C         4.4902655033       30.6642139014       19.3391408239
  C         5.4277442774       31.3459372629       18.5513867448
  C         3.9454130052       29.3099690277       18.9448382575
  C         3.0323542910       28.6549485996       19.7355698206
  C         2.6948370500       29.1913625759       20.9405263507
  H         2.9209117030       30.8320507498       22.3246661530
  H         4.4788667290       32.2246483710       20.9227144859
  H         5.8783897379       32.2483428612       18.8380703772
  H         2.5568336695       27.7453446421       19.3528023631
  H         1.9750071134       28.6408823260       21.5143511840
  C         5.7406329190       30.8937683638       17.3056826412
  C         4.3612484247       28.7419959827       17.7070781503
  C         5.1767723232       29.5671373156       16.8261858302
  C         6.5596351956       31.6395630729       16.4025926271
  H         3.9655783814       27.7762762140       17.4426730697
  C         5.4635195655       29.1835215431       15.4760546287
  C         6.8418902207       31.1236844906       15.1282029811
  H         6.9989771314       32.5506019696       16.6395158535
  C         6.3471634100       29.9071854002       14.7008353453
  H         4.9990416725       28.2146378354       15.0747392510
  H         7.5022506713       31.6860294827       14.5436289716
  H         6.5799475669       29.5439740747       13.6859888694
  C         2.5362272975       33.2322626139       14.5481709461
  C         1.8752913076       34.0806851219       15.4388632990
  C         1.3223164105       33.5833988830       16.6236785666
  C         0.5169355289       34.3749349893       17.4873328938