#     Step Nr.          Time[fs]        Kin.[a.u.]          Temp[K]            Pot.[a.u.]        Cons Qty[a.u.]        UsedTime[s]
         0            0.000000         2.412123729       564.840579357         2.446232237         4.858355966         0.000000000
         1            0.100000         2.440711635       571.534932970         2.417622463         4.858334098         0.903408378
         2            0.200000         2.467926337       577.907727287         2.390387005         4.858313343         0.290265368
         3            0.300000         2.493438360       583.881809487         2.364855785         4.858294145         0.356318055
         4            0.400000         2.516943073       589.385845575         2.341333706         4.858276780         0.275436554
         5            0.500000         2.538165204       594.355375383         2.320096267         4.858261471         0.261684654
         6            0.600000         2.556862429       598.733654720         2.301385972         4.858248402         0.213102385
         7            0.700000         2.572828478       602.472381632         2.285409276         4.858237753         0.239572469
         8            0.800000         2.585895729       605.532304934         2.272333912         4.858229640         0.234076796
         9            0.900000         2.595937308       607.883714724         2.262286866         4.858224174         0.231046828
        10            1.000000         2.602868628       609.506803431         2.255352780         4.858221407         0.262701096
        11            1.100000         2.606648384       610.391898864         2.251572995         4.858221379         0.202265279
        12            1.200000         2.607278962       610.539559627         2.250945093         4.858224055         0.264296539
        13            1.300000         2.604806228       609.960526093         2.253423179         4.858229407         0.242926529
        14            1.400000         2.599318800       608.675549740         2.258918546         4.858237345         0.214952890
        15            1.500000         2.590946783       606.715096912         2.267300984         4.858247767         0.221708234
        16            1.600000         2.579859945       604.118921639         2.278400564         4.858260509         0.221502574
        17            1.700000         2.566265280       600.935495270         2.292010118         4.858275399         0.232270211
        18            1.800000         2.550404135       597.221333179         2.307888094         4.858292229         0.232099367
        19            1.900000         2.532548933       593.040228212         2.325761842         4.858310776         0.218342816
        20            2.000000         2.512999478       588.462384325         2.345331291         4.858330769         0.238026882
        21            2.100000         2.492078836       583.563453475         2.366273103         4.858351940         0.241568441
        22            2.200000         2.470128917       578.423499507         2.388245080         4.858373997         0.230410753
        23            2.300000         2.447505855       573.125917361         2.410890802         4.858396657         0.249895699
        24            2.400000         2.424575211       567.756309701         2.433844378         4.858419589         0.238049638
        25            2.500000         2.401707007       562.401323229         2.456735466         4.858442473         0.265676016
        26            2.600000         2.379270647       557.147460667         2.479194358         4.858465005         0.210110076
        27            2.700000         2.357629931       552.079911913         2.500856953         4.858486884         0.209310476
        28            2.800000         2.337138203       547.281418825         2.521369608         4.858507812         0.175893199
        29            2.900000         2.318133540       542.831147426         2.540393957         4.858527497         0.161965659
        30            3.000000         2.300934140       538.803609916         2.557611559         4.858545699         0.176767951
        31            3.100000         2.285834022       535.267655452         2.572728078         4.858562100         0.165936494
        32            3.200000         2.273098933       532.285513605         2.585477584         4.858576516         0.177286863
        33            3.300000         2.262962716       529.911942744         2.595626028         4.858588744         0.178518288
        34            3.400000         2.255624110       528.193481061         2.602974490         4.858598600         0.162853958
        35            3.500000         2.251243968       527.167794845         2.607361980         4.858605948         0.177429035
        36            3.600000         2.249942988       526.863147903         2.608667692         4.858610680         0.159707081
        37            3.700000         2.251799988       527.297996565         2.606812722         4.858612710         0.100367263
        38            3.800000         2.256850719       528.480712671         2.601761311         4.858612029         0.077990303
        39            3.900000         2.265087217       530.409431525         2.593521395         4.858608612         0.078403359
        40            4.000000         2.276457765       533.072042368         2.582144739         4.858602503         0.078762110
        41            4.100000         2.290867389       536.446305701         2.567726374         4.858593763         0.078258488
        42            4.200000         2.308178917       540.500099919         2.550403576         4.858582493         0.119045980
        43            4.300000         2.328214601       545.191802653         2.530354228         4.858568829         0.091533899
        44            4.400000         2.350758308       550.470802388         2.507794625         4.858552933         0.158678815
        45            4.500000         2.375558128       556.278110024         2.482976858         4.858534986         0.181328202
        46            4.600000         2.402329335       562.547052276         2.456185874         4.858515210         0.163040409
        47            4.700000         2.430757734       569.204054611         2.427736059         4.858493794         0.106801627
        48            4.800000         2.460503023       576.169429505         2.397967896         4.858470919         0.078906709
        49            4.900000         2.491201583       583.358029567         2.367245036         4.858446620         0.089490743
        50            5.000000         2.522467659       590.679523071         2.335952979         4.858420638         0.164987108
        51            5.100000         2.554924953       598.279960947         2.303468372         4.858393325         0.208406363
        52            5.200000         2.586005676       605.558050963         2.272366034         4.858371710         0.167674566
        53            5.300000         2.616603423       612.723043809         2.241741018         4.858344441         0.157116462
        54            5.400000         2.646308588       619.679023030         2.212008630         4.858317218         0.184656745
        55            5.500000         2.674704830       626.328495209         2.183587793         4.858292623         0.180950118
        56            5.600000         2.701403417       632.580432145         2.156866708         4.858270124         0.240950361
        57            5.700000         2.726045627       638.350832712         2.132203826         4.858249453         0.215637524
        58            5.800000         2.748300900       643.562290720         2.109929780         4.858230680         0.205791486
        59            5.900000         2.767868035       648.144274507         2.090345909         4.858213944         0.220887231
        60            6.000000         2.784477837       652.033747574         2.073721571         4.858199408         0.187685944
        61            6.100000         2.797896072       655.175859817         2.060291192         4.858187264         0.207523236
        62            6.200000         2.807926312       657.524614348         2.050251349         4.858177661         0.208256764
        63            6.300000         2.814412424       659.043449957         2.043758293         4.858170717         0.182422312
        64            6.400000         2.817240587       659.705713255         2.040925945         4.858166532         0.184224358
        65            6.500000         2.816340812       659.495015336         2.041824344         4.858165156         0.211750120
        66            6.600000         2.811687908       658.405457272         2.046478720         4.858166628         0.186045729
        67            6.700000         2.803301916       656.441731896         2.054869019         4.858170935         0.430151111
        68            6.800000         2.791247958       653.619088793         2.066930074         4.858178033         0.191398503
        69            6.900000         2.775635543       649.963171109         2.082552301         4.858187844         0.206296396
        70            7.000000         2.756617310       645.509722272         2.101582934         4.858200244         0.206860418
        71            7.100000         2.734387250       640.304168324         2.123827840         4.858215090         0.203478543
        72            7.200000         2.709178388       634.401076407         2.149053833         4.858232221         0.205688126
        73            7.300000         2.681259942       627.863488483         2.176991467         4.858251410         0.187727042
        74            7.400000         2.650934087       620.762163755         2.207338343         4.858272429         0.202753415
        75            7.500000         2.618532281       613.174719362         2.239762746         4.858295027         0.188980864
        76            7.600000         2.584411215       605.184680335         2.273907725         4.858318940         0.203105047
        77            7.700000         2.548948479       596.880466109         2.309395391         4.858343870         0.203010917
        78            7.800000         2.512537963       588.354312664         2.345831550         4.858369513         0.206618402
        79            7.900000         2.475585048       579.701147118         2.382810510         4.858395558         0.163076654
        80            8.000000         2.438501636       571.017423332         2.419920051         4.858421686         0.112800933
        81            8.100000         2.401701132       562.399947501         2.456746469         4.858447600         0.116644574
        82            8.200000         2.365593406       553.944697778         2.492879569         4.858472976         0.078370742
        83            8.300000         2.330579790       545.745652714         2.527917705         4.858497496         0.112666186
        84            8.400000         2.297048177       537.893644339         2.561472692         4.858520870         0.077843823
        85            8.500000         2.265368279       530.475247108         2.593174541         4.858542820         0.078149352
        86            8.600000         2.235887185       523.571737949         2.622675885         4.858563070         0.091447828
        87            8.700000         2.208925129       517.258105165         2.649656259         4.858581388         0.153786194
        88            8.800000         2.184771625       511.602143512         2.673825927         4.858597552         0.117691210
        89            8.900000         2.163681993       506.663640794         2.694929385         4.858611379         0.078433642
        90            9.000000         2.145874288       502.493657965         2.712748412         4.858622700         0.141929828
        91            9.100000         2.131526742       499.133931330         2.727104639         4.858631380         0.143793909
        92            9.200000         2.120775647       496.616376022         2.737861684         4.858637330         0.078527832
        93            9.300000         2.113713778       494.962717096         2.744926693         4.858640471         0.128313268
        94            9.400000         2.110389414       494.184259608         2.748251372         4.858640785         0.178943414
        95            9.500000         2.110805823       494.281769135         2.747832450         4.858638273         0.179614585
        96            9.600000         2.114921358       495.245492902         2.743711615         4.858632973         0.192054825
        97            9.700000         2.122650094       497.055310440         2.735974875         4.858624969         0.189455738
        98            9.800000         2.133863035       499.681014909         2.724751327         4.858614362         0.159619100
        99            9.900000         2.148389880       503.082727335         2.710211411         4.858601291         0.131155081
       100           10.000000         2.166021259       507.211420373         2.692564668         4.858585927         0.129434939
       101           10.100000         2.186511469       512.009558271         2.672057006         4.858568475         0.129556391
       102           10.200000         2.209581646       517.411840075         2.648967513         4.858549159         0.145389074
       103           10.300000         2.234923342       523.346037375         2.623604870         4.858528212         0.117293870
       104           10.400000         2.262202500       529.733924945         2.596303430         4.858505930         0.130505985
       105           10.500000         2.291063705       536.492276511         2.567418855         4.858482560         0.089135991
       106           10.600000         2.321134705       543.533922219         2.537323728         4.858458433         0.086463055
       107           10.700000         2.352031119       550.768853174         2.506402708         4.858433827         0.090891141
       108           10.800000         2.383361314       558.105361372         2.475047744         4.858409058         0.153482024
       109           10.900000         2.414731347       565.451198172         2.443653099         4.858384446         0.156213161
       110           11.000000         2.445749942       572.714739829         2.412610360         4.858360301         0.172802551
       111           11.100000         2.476033375       579.806130559         2.382303543         4.858336918         0.180362646
       112           11.200000         2.505210254       586.638402641         2.353104314         4.858314568         0.171166211
       113           11.300000         2.532926220       593.128576454         2.325367319         4.858293539         0.088865876
       114           11.400000         2.558848302       599.198681238         2.299425800         4.858274102         0.087867543
       115           11.500000         2.582669025       604.776716414         2.275587468         4.858256493         0.146846974
       116           11.600000         2.604110221       609.797543938         2.254130713         4.858240933         0.104814995
       117           11.700000         2.622926414       614.203681783         2.235301167         4.858227581         0.079002135
       118           11.800000         2.638907788       617.945997445         2.219308813         4.858216601         0.162374845
       119           11.900000         2.651882667       620.984290368         2.206325460         4.858208127         0.126095852
       120           12.000000         2.661719533       623.287762999         2.196482715         4.858202249         0.081598774
       121           12.100000         2.668328501       624.835367396         2.189870526         4.858199027         0.144041315
       122           12.200000         2.671662269       625.616027030         2.186536209         4.858198478         0.151354123
       123           12.300000         2.671716508       625.628728037         2.186484101         4.858200610         0.085299486
       124           12.400000         2.668529738       624.882490494         2.189675625         4.858205363         0.109275104
       125           12.500000         2.662182625       623.396204087         2.196030063         4.858212688         0.087305412
       126           12.600000         2.652796677       621.198321631         2.205425758         4.858222435         0.182810007
       127           12.700000         2.640532552       618.326464118         2.217701942         4.858234494         0.113884032
       128           12.800000         2.625587781       614.826886962         2.232660903         4.858248684         0.133396544
       129           12.900000         2.608193981       610.753827244         2.250070824         4.858264805         0.161234016
       130           13.000000         2.588613700       606.168764997         2.269668937         4.858282637         0.109014653
       131           13.100000         2.567136860       601.139590785         2.291165080         4.858301940         0.122487737
       132           13.200000         2.544076822       595.739683143         2.314245627         4.858322449         0.085249435
       133           13.300000         2.519766202       590.046930094         2.338577668         4.858343870         0.157480707
       134           13.400000         2.494552482       584.142700475         2.363813469         4.858365951         0.138068991
       135           13.500000         2.468793344       578.110751831         2.389595016         4.858388360         0.077809677
       136           13.600000         2.442851908       572.036115065         2.415558911         4.858410819         0.102418257
       137           13.700000         2.417091954       566.003975261         2.441341065         4.858433019         0.156000987
       138           13.800000         2.391873093       560.098541829         2.466581578         4.858454670         0.083754418
       139           13.900000         2.367545971       554.401924632         2.490929495         4.858475466         0.122539584
       140           14.000000         2.344447685       548.993060533         2.514047454         4.858495138         0.118207816
       141           14.100000         2.322897354       543.946677067         2.535616081         4.858513435         0.120864965
       142           14.200000         2.303191945       539.332313935         2.555338163         4.858530107         0.134917120
       143           14.300000         2.285602350       535.213405532         2.572942589         4.858544939         0.179445006
       144           14.400000         2.270369808       531.646441855         2.588187914         4.858557722         0.126471002
       145           14.500000         2.257702762       528.680233297         2.600865535         4.858568297         0.086026192
       146           14.600000         2.247774094       526.355263599         2.610802423         4.858576517         0.169608248
       147           14.700000         2.240718896       524.703166889         2.617863373         4.858582269         0.153157441
       148           14.800000         2.236632747       523.746324075         2.621952734         4.858585481         0.306294819
       149           14.900000         2.235570416       523.497560906         2.623015689         4.858586105         0.109867755
       150           15.000000         2.237545175       523.959985137         2.621038965         4.858584140         0.128216824
       151           15.100000         2.242528675       525.126957912         2.616050937         4.858579612         0.152419694
       152           15.200000         2.250451314       526.982181121         2.608121258         4.858572572         0.076609196
       153           15.300000         2.261203199       529.499921291         2.597359931         4.858563130         0.102274880
       154           15.400000         2.274635607       532.645352611         2.583915793         4.858551400         0.153900221
       155           15.500000         2.290562970       536.375020576         2.567974565         4.858537534         0.102182070
       156           15.600000         2.308765379       540.637430235         2.549756343         4.858521722         0.076327180
       157           15.700000         2.328991477       545.373721566         2.529512682         4.858504159         0.151470892
       158           15.800000         2.350961761       550.518444364         2.507523326         4.858485086         0.101475123
       159           15.900000         2.374372286       556.000424507         2.484092484         4.858464769         0.139971729
       160           16.000000         2.398898715       561.743713107         2.459544747         4.858443462         0.101982994
       161           16.100000         2.424200610       567.668590420         2.434220825         4.858421435         0.141337449
       162           16.200000         2.449925956       573.692626013         2.408473043         4.858398999         0.115787096
       163           16.300000         2.475715807       579.731766638         2.382660657         4.858376464         0.109502479
       164           16.400000         2.501208945       585.701426809         2.357145147         4.858354093         0.133883778
       165           16.500000         2.526046760       591.517631711         2.332285420         4.858332181         0.152403491
       166           16.600000         2.549878004       597.098130464         2.308433029         4.858311033         0.076228289
       167           16.700000         2.572363326       602.363458346         2.285927651         4.858290977         0.128159106
       168           16.800000         2.593179781       607.237992138         2.265092384         4.858272165         0.139562573
       169           16.900000         2.612025158       611.650963655         2.246229780         4.858254938         0.075824415
       170           17.000000         2.628621915       615.537381936         2.229617623         4.858239538         0.120730301
       171           17.100000         2.642720882       618.838899531         2.215505251         4.858226133         0.076158807
       172           17.200000         2.654104595       621.504593153         2.204110315         4.858214910         0.076567587
       173           17.300000         2.662590171       623.491637990         2.195615841         4.858206012         0.076459570
       174           17.400000         2.668031816       624.765893390         2.190167754         4.858199570         0.076491090
       175           17.500000         2.670322771       625.302360280         2.187872908         4.858195680         0.076716373
       176           17.600000         2.669396861       625.085542351         2.188797534         4.858194395         0.076801162
       177           17.700000         2.665229491       624.109680488         2.192966253         4.858195744         0.076444924
       178           17.800000         2.657838045       622.378845238         2.200361627         4.858199672         0.076455804
       179           17.900000         2.647281856       619.906930728         2.210924386         4.858206242         0.077546837
       180           18.000000         2.633661635       616.717519897         2.224553699         4.858215334         0.075628212
       181           18.100000         2.617118288       612.843608492         2.241108548         4.858226836         0.091241745
       182           18.200000         2.597831263       608.327217095         2.260409325         4.858240588         0.090802418
       183           18.300000         2.576016443       603.218898992         2.282240066         4.858256509         0.091431215
       184           18.400000         2.551923488       597.577115885         2.306350872         4.858274359         0.091331748
       185           18.500000         2.525832824       591.467534828         2.332461100         4.858293925         0.091686932
       186           18.600000         2.498052245       584.962230713         2.360262734         4.858314979         0.091280079
       187           18.700000         2.468913156       578.138807850         2.389424108         4.858337264         0.091268035
       188           18.800000         2.438766624       571.079475084         2.419593893         4.858360517         0.092252908
       189           18.900000         2.407979078       563.870037450         2.450405400         4.858384478         0.091099989
       190           19.000000         2.376927862       556.598856990         2.481481000         4.858408862         0.091308583
       191           19.100000         2.345255508       549.182226479         2.513177776         4.858433284         0.098206796
       192           19.200000         2.314864459       542.065635546         2.543592603         4.858457062         0.076618392
       193           19.300000         2.285328358       535.149245452         2.573152029         4.858480387         0.075636787
       194           19.400000         2.257015781       528.519364788         2.601487184         4.858502964         0.072668416
       195           19.500000         2.230283233       522.259475333         2.628241270         4.858524502         0.071141191
       196           19.600000         2.205470384       516.449116714         2.653074295         4.858544679         0.079178428
       197           19.700000         2.182895336       511.162778075         2.675667873         4.858563209         0.054677736
       198           19.800000         2.162850224       506.468867674         2.695729629         4.858579853         0.041173633
       199           19.900000         2.145597285       502.428792806         2.712997115         4.858594400         0.041078841
       200           20.000000         2.131365550       499.096185441         2.727241126         4.858606676         0.041110927
