 DBCSR| Multiplication driver                                               XSMM
 DBCSR| Multrec recursion limit                                              512
 DBCSR| Multiplication stack size                                           1000
 DBCSR| Maximum elements for images                                    UNLIMITED
 DBCSR| Randmat seed                                                    12341313
 DBCSR| Multiplication size stacks                                             3


  **** **** ******  **  PROGRAM STARTED AT               2021-04-29 14:23:29.612
 ***** ** ***  *** **   PROGRAM STARTED ON               bulstake.phys.ucl.ac.uk
 **    ****   ******    PROGRAM STARTED BY                             sgiannini
 ***** **    ** ** **   PROGRAM PROCESS ID                                 13003
  **** **  *******  **  PROGRAM STARTED IN /scratch/sgiannini/REG_TEST_MERGING/3
                                           7-071a0540f1_code_extension_V3_ADJ/ru
                                           n-fssh-NO_REVERSAL

 CP2K| version string:                    CP2K version 4.0 (Development Version)
 CP2K| source code revision number:                                  git:1080fc1
 CP2K| cp2kflags: libint fftw3 libxc quip smm_dnn smm libxsmm libderiv_max_am1=5
 CP2K|             libint_max_am=6
 CP2K| is freely available from                            https://www.cp2k.org/
 CP2K| Program compiled at                          Thu 29 Apr 10:11:08 BST 2021
 CP2K| Program compiled on                               bulstake.phys.ucl.ac.uk
 CP2K| Program compiled for                                         local_hetero
 CP2K| Data directory path           /scratch/sgiannini/flavoured-cptk/cp2k/data
 CP2K| Input file name                                                   run.inp

 GLOBAL| Force Environment number                                              1
 GLOBAL| Basis set file name                                           POTENTIAL
 GLOBAL| MM Potential file name                                     MM_POTENTIAL
 GLOBAL| Coordinate file name                                       pos-init.xyz
 GLOBAL| Force Environment number                                              2
 GLOBAL| Basis set file name                                           POTENTIAL
 GLOBAL| MM Potential file name                                     MM_POTENTIAL
 GLOBAL| Coordinate file name                                       pos-init.xyz
 GLOBAL| Force Environment number                                              3
 GLOBAL| Basis set file name                                           POTENTIAL
 GLOBAL| MM Potential file name                                     MM_POTENTIAL
 GLOBAL| Coordinate file name                                       pos-init.xyz
 GLOBAL| Method name                                                        CP2K
 GLOBAL| Project name                                                        run
 GLOBAL| Preferred FFT library                                             FFTW3
 GLOBAL| Preferred diagonalization lib.                                       SL
 GLOBAL| Run type                                                             MD
 GLOBAL| All-to-all communication in single precision                          F
 GLOBAL| FFTs using library dependent lengths                                  F
 GLOBAL| Global print level                                                  LOW
 GLOBAL| Total number of message passing processes                             1
 GLOBAL| Number of threads for this process                                    1
 GLOBAL| This output is from process                                           0
 GLOBAL| CPU model name :  Intel(R) Xeon(R) CPU E5-2687W v4 @ 3.00GHz

 MEMORY| system memory details [Kb]
 MEMORY|                        rank 0           min           max       average
 MEMORY| MemTotal             65894336      65894336      65894336      65894336
 MEMORY| MemFree               7017796       7017796       7017796       7017796
 MEMORY| Buffers                  8744          8744          8744          8744
 MEMORY| Cached               40779116      40779116      40779116      40779116
 MEMORY| Slab                  3236700       3236700       3236700       3236700
 MEMORY| SReclaimable          2479316       2479316       2479316       2479316
 MEMORY| MemLikelyFree        50284972      50284972      50284972      50284972

 TOTAL NUMBER OF FORCE EVALS           3
 NOTE:n_subforce_eval           2
 DECOMP =  T
 DECOMP =  T

 MD| Molecular Dynamics Protocol 
 MD| Ensemble Type                                                           NVE
 MD| Number of Time Steps                                                    200
 MD| Time Step [fs]                                                         0.10
 MD| Temperature [K]                                                      400.00
 MD| Temperature tolerance [K]                                              0.00
 MD| Print MD information every                                        1 step(s)
 MD| File type     Print frequency[steps]                             File names
 MD| Coordinates          200                                      run-pos-1.xyz
 MD| Velocities             1                                      run-vel-1.xyz
 MD| Energies               1                                         run-1.ener
 MD| Dump                 200                                      run-1.restart

 ROT| Rotational Analysis Info 
 ROT| Principal axes and moments of inertia in atomic units:
 ROT|                                1                 2                 3
 ROT| EIGENVALUES            0.319196005E+10   0.583971964E+10   0.882037602E+10
 ROT|      X                     0.997631408       0.066105605       0.019016393
 ROT|      Y                     0.066118536      -0.997811774      -0.000051363
 ROT|      Z                    -0.018971385      -0.001308578       0.999819171
 ROT| Numer of Rotovibrational vectors:     6

 Calculation of degrees of freedom
                                                      Number of atoms:       900
                                 Number of Intramolecular constraints:         0
                                 Number of Intermolecular constraints:         0
                                  Invariants(translation + rotations):         3
                                                   Degrees of freedom:      2697


 Restraints Information
                                  Number of Intramolecular restraints:         0
                                  Number of Intermolecular restraints:         0

 *** WARNING in motion/thermostat/thermostat_methods.F:280 :: Thermostat ***
 *** for Particles has been defined but the ensemble provided does not   ***
 *** support thermostat for Particles! Ignoring thermostat input.        ***

 ************************** Velocities initialization **************************
 Initial Temperature                                                    564.84 K
 COM velocity:           -0.000000000004     -0.000000000000      0.000000000001
 *******************************************************************************

 FIRST CALL: force_env_calc_energy_force
 RESTART_KEY F
 FOB-SH: ALLOCATION OF S MATRICES
 ACTIVE STATE           3
 FOBSH| ACTIVE STATE =            3

 ENERGY| Total FORCE_EVAL ( MIXED ) energy (a.u.):             2.446232237135226

 STEP NUMBER                  =            0
 CPU TIME [s]                 =    0.0000000000000000        0.0000000000000000     

 MD_ENERGIES| Initialization proceeding


 ******************************** GO CP2K GO! **********************************
 INITIAL POTENTIAL ENERGY[hartree]     =                      0.244623223714E+01
 INITIAL KINETIC ENERGY[hartree]       =                      0.241212372912E+01
 INITIAL TEMPERATURE[K]                =                                 564.841
 INITIAL VOLUME[bohr^3]                =                      0.580604601118E+05
 INITIAL CELL LNTHS[bohr]   =      0.7651501E+02   0.5624770E+02   0.1634991E+02
 INITIAL CELL ANGLS[deg]    =      0.9000000E+02   0.1244000E+03   0.9000000E+02
 ******************************** GO CP2K GO! **********************************
 FOBSH| *** OFF-DIAGONAL GRADIENT CALCULATION
 FOBSH| Put former active state           3 in new active state           3
 RANDOM_NUMBER_HOPPING_PROBA   5.9147270233983230E-002
 FOBSH| ACTIVE STATE =            3

 ENERGY| Total FORCE_EVAL ( MIXED ) energy (a.u.):             2.417622462883075

 FOBSH| CASE1: no hop and no trivial crossing
 ENTER integrator.F
 STEP NUMBER                  =            1
 CPU TIME [s]                 =   0.90340837836265564       0.90340837836265564     

 *******************************************************************************
 ENSEMBLE TYPE                =                                              NVE
 STEP NUMBER                  =                                                1
 TIME [fs]                    =                                         0.100000
 CONSERVED QUANTITY [hartree] =                               0.485833409768E+01

                                              INSTANTANEOUS             AVERAGES
 CPU TIME [s]                 =                        0.90                 0.90
 ENERGY DRIFT PER ATOM [K]    =         -0.767282622205E-02   0.000000000000E+00
 POTENTIAL ENERGY[hartree]    =          0.241762246288E+01   0.241762246288E+01
 KINETIC ENERGY [hartree]     =          0.244071163479E+01   0.244071163479E+01
 TEMPERATURE [K]              =                     571.535              571.535
 *******************************************************************************

 FOBSH| *** OFF-DIAGONAL GRADIENT CALCULATION
 FOBSH| Put former active state           3 in new active state           3
 RANDOM_NUMBER_HOPPING_PROBA   6.0028801785314174E-002
 FOBSH| ACTIVE STATE =            3

 ENERGY| Total FORCE_EVAL ( MIXED ) energy (a.u.):             2.390387005314979

 FOBSH| CASE1: no hop and no trivial crossing
 ENTER integrator.F
 STEP NUMBER                  =            2
 CPU TIME [s]                 =   0.29026536829769611       0.59683687333017588     

 *******************************************************************************
 ENSEMBLE TYPE                =                                              NVE
 STEP NUMBER                  =                                                2
 TIME [fs]                    =                                         0.200000
 CONSERVED QUANTITY [hartree] =                               0.485831334273E+01

                                              INSTANTANEOUS             AVERAGES
 CPU TIME [s]                 =                        0.29                 0.60
 ENERGY DRIFT PER ATOM [K]    =         -0.149549234029E-01  -0.747746170146E-02
 POTENTIAL ENERGY[hartree]    =          0.239038700531E+01   0.240400473410E+01
 KINETIC ENERGY [hartree]     =          0.246792633741E+01   0.245431898610E+01
 TEMPERATURE [K]              =                     577.908              574.721
 *******************************************************************************

 FOBSH| *** OFF-DIAGONAL GRADIENT CALCULATION
 FOBSH| Put former active state           3 in new active state           3
 RANDOM_NUMBER_HOPPING_PROBA   7.3757525147303299E-002
 FOBSH| ACTIVE STATE =            3

 ENERGY| Total FORCE_EVAL ( MIXED ) energy (a.u.):             2.364855785299476

 FOBSH| CASE1: no hop and no trivial crossing
 ENTER integrator.F
 STEP NUMBER                  =            3
 CPU TIME [s]                 =   0.35631805472075939       0.51666393379370368     

 *******************************************************************************
 ENSEMBLE TYPE                =                                              NVE
 STEP NUMBER                  =                                                3
 TIME [fs]                    =                                         0.300000
 CONSERVED QUANTITY [hartree] =                               0.485829414497E+01

                                              INSTANTANEOUS             AVERAGES
 CPU TIME [s]                 =                        0.36                 0.52
 ENERGY DRIFT PER ATOM [K]    =         -0.216906615706E-01  -0.122151949912E-01
 POTENTIAL ENERGY[hartree]    =          0.236485578530E+01   0.239095508450E+01
 KINETIC ENERGY [hartree]     =          0.249343835967E+01   0.246735877729E+01
 TEMPERATURE [K]              =                     583.882              577.775
 *******************************************************************************

 FOBSH| *** OFF-DIAGONAL GRADIENT CALCULATION
 FOBSH| Put former active state           3 in new active state           3
 RANDOM_NUMBER_HOPPING_PROBA  0.80854958276690769     
 FOBSH| ACTIVE STATE =            3

 ENERGY| Total FORCE_EVAL ( MIXED ) energy (a.u.):             2.341333706452672

 FOBSH| CASE1: no hop and no trivial crossing
 ENTER integrator.F
 STEP NUMBER                  =            4
 CPU TIME [s]                 =   0.27543655410408974       0.45635708887130022     

 *******************************************************************************
 ENSEMBLE TYPE                =                                              NVE
 STEP NUMBER                  =                                                4
 TIME [fs]                    =                                         0.400000
 CONSERVED QUANTITY [hartree] =                               0.485827677974E+01

                                              INSTANTANEOUS             AVERAGES
 CPU TIME [s]                 =                        0.28                 0.46
 ENERGY DRIFT PER ATOM [K]    =         -0.277834408535E-01  -0.161072564568E-01
 POTENTIAL ENERGY[hartree]    =          0.234133370645E+01   0.237854973999E+01
 KINETIC ENERGY [hartree]     =          0.251694307328E+01   0.247975485129E+01
 TEMPERATURE [K]              =                     589.386              580.678
 *******************************************************************************

 FOBSH| *** OFF-DIAGONAL GRADIENT CALCULATION
 FOBSH| Put former active state           3 in new active state           3
 RANDOM_NUMBER_HOPPING_PROBA  0.83291450404706813     
 FOBSH| ACTIVE STATE =            3

 ENERGY| Total FORCE_EVAL ( MIXED ) energy (a.u.):             2.320096267148719

 FOBSH| CASE1: no hop and no trivial crossing
 ENTER integrator.F
 STEP NUMBER                  =            5
 CPU TIME [s]                 =   0.26168465428054333       0.41742260195314884     

 *******************************************************************************
 ENSEMBLE TYPE                =                                              NVE
 STEP NUMBER                  =                                                5
 TIME [fs]                    =                                         0.500000
 CONSERVED QUANTITY [hartree] =                               0.485826147144E+01

                                              INSTANTANEOUS             AVERAGES
 CPU TIME [s]                 =                        0.26                 0.42
 ENERGY DRIFT PER ATOM [K]    =         -0.331545209321E-01  -0.195167093518E-01
 POTENTIAL ENERGY[hartree]    =          0.232009626715E+01   0.236685904542E+01
 KINETIC ENERGY [hartree]     =          0.253816520429E+01   0.249143692189E+01
 TEMPERATURE [K]              =                     594.355              583.413
 *******************************************************************************

 FOBSH| *** OFF-DIAGONAL GRADIENT CALCULATION
 FOBSH| Put former active state           3 in new active state           3
 RANDOM_NUMBER_HOPPING_PROBA  0.18164339214140215     
 FOBSH| ACTIVE STATE =            3

 ENERGY| Total FORCE_EVAL ( MIXED ) energy (a.u.):             2.301385972312482

 FOBSH| CASE1: no hop and no trivial crossing
 ENTER integrator.F
 STEP NUMBER                  =            6
 CPU TIME [s]                 =   0.21310238540172577       0.38336923252791166     

 *******************************************************************************
 ENSEMBLE TYPE                =                                              NVE
 STEP NUMBER                  =                                                6
 TIME [fs]                    =                                         0.600000
 CONSERVED QUANTITY [hartree] =                               0.485824840174E+01

                                              INSTANTANEOUS             AVERAGES
 CPU TIME [s]                 =                        0.21                 0.38
 ENERGY DRIFT PER ATOM [K]    =         -0.377401637330E-01  -0.225539517487E-01
 POTENTIAL ENERGY[hartree]    =          0.230138597231E+01   0.235594686657E+01
 KINETIC ENERGY [hartree]     =          0.255686242943E+01   0.250234117315E+01
 TEMPERATURE [K]              =                     598.734              585.967
 *******************************************************************************

 FOBSH| *** OFF-DIAGONAL GRADIENT CALCULATION
 FOBSH| Put former active state           3 in new active state           3
 RANDOM_NUMBER_HOPPING_PROBA   1.5105624017764302E-002
 FOBSH| ACTIVE STATE =            3

 ENERGY| Total FORCE_EVAL ( MIXED ) energy (a.u.):             2.285409275641136

 FOBSH| CASE1: no hop and no trivial crossing
 ENTER integrator.F
 STEP NUMBER                  =            7
 CPU TIME [s]                 =   0.23957246914505959       0.36282683775893276     

 *******************************************************************************
 ENSEMBLE TYPE                =                                              NVE
 STEP NUMBER                  =                                                7
 TIME [fs]                    =                                         0.700000
 CONSERVED QUANTITY [hartree] =                               0.485823775325E+01

                                              INSTANTANEOUS             AVERAGES
 CPU TIME [s]                 =                        0.24                 0.36
 ENERGY DRIFT PER ATOM [K]    =         -0.414763024930E-01  -0.252571447122E-01
 POTENTIAL ENERGY[hartree]    =          0.228540927564E+01   0.234587006786E+01
 KINETIC ENERGY [hartree]     =          0.257282847761E+01   0.251241078807E+01
 TEMPERATURE [K]              =                     602.472              588.325
 *******************************************************************************

 FOBSH| *** OFF-DIAGONAL GRADIENT CALCULATION
 FOBSH| Put former active state           3 in new active state           3
 RANDOM_NUMBER_HOPPING_PROBA  0.24687190385287536     
 FOBSH| ACTIVE STATE =            3

 ENERGY| Total FORCE_EVAL ( MIXED ) energy (a.u.):             2.272333911542526

 FOBSH| CASE1: no hop and no trivial crossing
 ENTER integrator.F
 STEP NUMBER                  =            8
 CPU TIME [s]                 =   0.23407679609954357       0.34673308255150914     

 *******************************************************************************
 ENSEMBLE TYPE                =                                              NVE
 STEP NUMBER                  =                                                8
 TIME [fs]                    =                                         0.800000
 CONSERVED QUANTITY [hartree] =                               0.485822964012E+01

                                              INSTANTANEOUS             AVERAGES
 CPU TIME [s]                 =                        0.23                 0.35
 ENERGY DRIFT PER ATOM [K]    =         -0.443228817211E-01  -0.276403618383E-01
 POTENTIAL ENERGY[hartree]    =          0.227233391154E+01   0.233667804832E+01
 KINETIC ENERGY [hartree]     =          0.258589572857E+01   0.252159640563E+01
 TEMPERATURE [K]              =                     605.532              590.476
 *******************************************************************************

 FOBSH| *** OFF-DIAGONAL GRADIENT CALCULATION
 FOBSH| Put former active state           3 in new active state           3
 RANDOM_NUMBER_HOPPING_PROBA  0.83365123518729989     
 FOBSH| ACTIVE STATE =            3

 ENERGY| Total FORCE_EVAL ( MIXED ) energy (a.u.):             2.262286865884557

 FOBSH| CASE1: no hop and no trivial crossing
 ENTER integrator.F
 STEP NUMBER                  =            9
 CPU TIME [s]                 =   0.23104682750999928       0.33387905421356356     

 *******************************************************************************
 ENSEMBLE TYPE                =                                              NVE
 STEP NUMBER                  =                                                9
 TIME [fs]                    =                                         0.900000
 CONSERVED QUANTITY [hartree] =                               0.485822417355E+01

                                              INSTANTANEOUS             AVERAGES
 CPU TIME [s]                 =                        0.23                 0.33
 ENERGY DRIFT PER ATOM [K]    =         -0.462408856006E-01  -0.297070867008E-01
 POTENTIAL ENERGY[hartree]    =          0.226228686588E+01   0.232841236139E+01
 KINETIC ENERGY [hartree]     =          0.259593730766E+01   0.252985650586E+01
 TEMPERATURE [K]              =                     607.884              592.410
 *******************************************************************************

 FOBSH| *** OFF-DIAGONAL GRADIENT CALCULATION
 FOBSH| Put former active state           3 in new active state           3
 RANDOM_NUMBER_HOPPING_PROBA  0.47399308453094258     
 FOBSH| ACTIVE STATE =            3

 ENERGY| Total FORCE_EVAL ( MIXED ) energy (a.u.):             2.255352779709085

 FOBSH| CASE1: no hop and no trivial crossing
 ENTER integrator.F
 STEP NUMBER                  =           10
 CPU TIME [s]                 =   0.26270109601318836       0.32676125839352604     

 *******************************************************************************
 ENSEMBLE TYPE                =                                              NVE
 STEP NUMBER                  =                                               10
 TIME [fs]                    =                                         1.000000
 CONSERVED QUANTITY [hartree] =                               0.485822140734E+01

                                              INSTANTANEOUS             AVERAGES
 CPU TIME [s]                 =                        0.26                 0.33
 ENERGY DRIFT PER ATOM [K]    =         -0.472114408496E-01  -0.314575221156E-01
 POTENTIAL ENERGY[hartree]    =          0.225535277971E+01   0.232110640322E+01
 KINETIC ENERGY [hartree]     =          0.260286862763E+01   0.253715771804E+01
 TEMPERATURE [K]              =                     609.507              594.119
 *******************************************************************************

 FOBSH| *** OFF-DIAGONAL GRADIENT CALCULATION
 FOBSH| Put former active state           3 in new active state           3
 RANDOM_NUMBER_HOPPING_PROBA  0.27416560636517739     
 FOBSH| ACTIVE STATE =            3

 ENERGY| Total FORCE_EVAL ( MIXED ) energy (a.u.):             2.251572995375379

 FOBSH| CASE1: no hop and no trivial crossing
 ENTER integrator.F
 STEP NUMBER                  =           11
 CPU TIME [s]                 =   0.20226527936756611       0.31544344211843878     

 *******************************************************************************
 ENSEMBLE TYPE                =                                              NVE
 STEP NUMBER                  =                                               11
 TIME [fs]                    =                                         1.100000
 CONSERVED QUANTITY [hartree] =                               0.485822137923E+01

                                              INSTANTANEOUS             AVERAGES
 CPU TIME [s]                 =                        0.20                 0.32
 ENERGY DRIFT PER ATOM [K]    =         -0.472213024286E-01  -0.328905930532E-01
 POTENTIAL ENERGY[hartree]    =          0.225157299538E+01   0.231478518432E+01
 KINETIC ENERGY [hartree]     =          0.260664838385E+01   0.254347505129E+01
 TEMPERATURE [K]              =                     610.392              595.599
 *******************************************************************************

 FOBSH| *** OFF-DIAGONAL GRADIENT CALCULATION
 FOBSH| Put former active state           3 in new active state           3
 RANDOM_NUMBER_HOPPING_PROBA  0.45405030167718952     
 FOBSH| ACTIVE STATE =            3

 ENERGY| Total FORCE_EVAL ( MIXED ) energy (a.u.):             2.250945093185292

 FOBSH| CASE1: no hop and no trivial crossing
 ENTER integrator.F
 STEP NUMBER                  =           12
 CPU TIME [s]                 =   0.26429653912782669       0.31118120020255441     

 *******************************************************************************
 ENSEMBLE TYPE                =                                              NVE
 STEP NUMBER                  =                                               12
 TIME [fs]                    =                                         1.200000
 CONSERVED QUANTITY [hartree] =                               0.485822405502E+01

                                              INSTANTANEOUS             AVERAGES
 CPU TIME [s]                 =                        0.26                 0.31
 ENERGY DRIFT PER ATOM [K]    =         -0.462824729890E-01  -0.340065830478E-01
 POTENTIAL ENERGY[hartree]    =          0.225094509319E+01   0.230946517673E+01
 KINETIC ENERGY [hartree]     =          0.260727896183E+01   0.254879204384E+01
 TEMPERATURE [K]              =                     610.540              596.844
 *******************************************************************************

 FOBSH| *** OFF-DIAGONAL GRADIENT CALCULATION
 FOBSH| Put former active state           3 in new active state           3
 RANDOM_NUMBER_HOPPING_PROBA  0.54219999671392127     
 FOBSH| ACTIVE STATE =            3

 ENERGY| Total FORCE_EVAL ( MIXED ) energy (a.u.):             2.253423178707615

 FOBSH| CASE1: no hop and no trivial crossing
 ENTER integrator.F
 STEP NUMBER                  =           13
 CPU TIME [s]                 =   0.24292652867734432       0.30593084085446132     

 *******************************************************************************
 ENSEMBLE TYPE                =                                              NVE
 STEP NUMBER                  =                                               13
 TIME [fs]                    =                                         1.300000
 CONSERVED QUANTITY [hartree] =                               0.485822940650E+01

                                              INSTANTANEOUS             AVERAGES
 CPU TIME [s]                 =                        0.24                 0.31
 ENERGY DRIFT PER ATOM [K]    =         -0.444048478510E-01  -0.348064495712E-01
 POTENTIAL ENERGY[hartree]    =          0.225342317871E+01   0.230515425380E+01
 KINETIC ENERGY [hartree]     =          0.260480622779E+01   0.255310082722E+01
 TEMPERATURE [K]              =                     609.961              597.853
 *******************************************************************************

 FOBSH| *** OFF-DIAGONAL GRADIENT CALCULATION
 FOBSH| Put former active state           3 in new active state           3
 RANDOM_NUMBER_HOPPING_PROBA  0.78530724540909458     
 FOBSH| ACTIVE STATE =            3

 ENERGY| Total FORCE_EVAL ( MIXED ) energy (a.u.):             2.258918545523314

 FOBSH| CASE1: no hop and no trivial crossing
 ENTER integrator.F
 STEP NUMBER                  =           14
 CPU TIME [s]                 =   0.21495288982987404       0.29943241578127650     

 *******************************************************************************
 ENSEMBLE TYPE                =                                              NVE
 STEP NUMBER                  =                                               14
 TIME [fs]                    =                                         1.400000
 CONSERVED QUANTITY [hartree] =                               0.485823734542E+01

                                              INSTANTANEOUS             AVERAGES
 CPU TIME [s]                 =                        0.21                 0.30
 ENERGY DRIFT PER ATOM [K]    =         -0.416193939403E-01  -0.352930884547E-01
 POTENTIAL ENERGY[hartree]    =          0.225891854552E+01   0.230185170321E+01
 KINETIC ENERGY [hartree]     =          0.259931879989E+01   0.255640211098E+01
 TEMPERATURE [K]              =                     608.676              598.626
 *******************************************************************************

 FOBSH| *** OFF-DIAGONAL GRADIENT CALCULATION
 FOBSH| Put former active state           3 in new active state           3
 RANDOM_NUMBER_HOPPING_PROBA  0.35091300797413705     
 FOBSH| ACTIVE STATE =            3

 ENERGY| Total FORCE_EVAL ( MIXED ) energy (a.u.):             2.267300983730074

 FOBSH| CASE1: no hop and no trivial crossing
 ENTER integrator.F
 STEP NUMBER                  =           15
 CPU TIME [s]                 =   0.22170823439955711       0.29425080368916190     

 *******************************************************************************
 ENSEMBLE TYPE                =                                              NVE
 STEP NUMBER                  =                                               15
 TIME [fs]                    =                                         1.500000
 CONSERVED QUANTITY [hartree] =                               0.485824776688E+01

                                              INSTANTANEOUS             AVERAGES
 CPU TIME [s]                 =                        0.22                 0.29
 ENERGY DRIFT PER ATOM [K]    =         -0.379629109949E-01  -0.354710766240E-01
 POTENTIAL ENERGY[hartree]    =          0.226730098373E+01   0.229954832191E+01
 KINETIC ENERGY [hartree]     =          0.259094678315E+01   0.255870508913E+01
 TEMPERATURE [K]              =                     606.715              599.165
 *******************************************************************************

 FOBSH| *** OFF-DIAGONAL GRADIENT CALCULATION
 FOBSH| Put former active state           3 in new active state           3
 RANDOM_NUMBER_HOPPING_PROBA  0.51277297843638336     
 FOBSH| ACTIVE STATE =            3

 ENERGY| Total FORCE_EVAL ( MIXED ) energy (a.u.):             2.278400563720113

 FOBSH| CASE1: no hop and no trivial crossing
 ENTER integrator.F
 STEP NUMBER                  =           16
 CPU TIME [s]                 =   0.22150257416069508       0.28970403934363270     

 *******************************************************************************
 ENSEMBLE TYPE                =                                              NVE
 STEP NUMBER                  =                                               16
 TIME [fs]                    =                                         1.600000
 CONSERVED QUANTITY [hartree] =                               0.485826050891E+01

                                              INSTANTANEOUS             AVERAGES
 CPU TIME [s]                 =                        0.22                 0.29
 ENERGY DRIFT PER ATOM [K]    =         -0.334922354473E-01  -0.353473990505E-01
 POTENTIAL ENERGY[hartree]    =          0.227840056372E+01   0.229822658703E+01
 KINETIC ENERGY [hartree]     =          0.257985994519E+01   0.256002726763E+01
 TEMPERATURE [K]              =                     604.119              599.475
 *******************************************************************************

 FOBSH| *** OFF-DIAGONAL GRADIENT CALCULATION
 FOBSH| Put former active state           3 in new active state           3
 RANDOM_NUMBER_HOPPING_PROBA  0.56672912879839055     
 FOBSH| ACTIVE STATE =            3

 ENERGY| Total FORCE_EVAL ( MIXED ) energy (a.u.):             2.292010118091085

 FOBSH| CASE1: no hop and no trivial crossing
 ENTER integrator.F
 STEP NUMBER                  =           17
 CPU TIME [s]                 =   0.23227021098136902       0.28632557885173482     

 *******************************************************************************
 ENSEMBLE TYPE                =                                              NVE
 STEP NUMBER                  =                                               17
 TIME [fs]                    =                                         1.700000
 CONSERVED QUANTITY [hartree] =                               0.485827539858E+01

                                              INSTANTANEOUS             AVERAGES
 CPU TIME [s]                 =                        0.23                 0.29
 ENERGY DRIFT PER ATOM [K]    =         -0.282680347715E-01  -0.349309658576E-01
 POTENTIAL ENERGY[hartree]    =          0.229201011809E+01   0.229786091238E+01
 KINETIC ENERGY [hartree]     =          0.256626528049E+01   0.256039420956E+01
 TEMPERATURE [K]              =                     600.935              599.561
 *******************************************************************************

 FOBSH| *** OFF-DIAGONAL GRADIENT CALCULATION
 FOBSH| Put former active state           3 in new active state           3
 RANDOM_NUMBER_HOPPING_PROBA   4.1701011982236642E-002
 FOBSH| ACTIVE STATE =            3

 ENERGY| Total FORCE_EVAL ( MIXED ) energy (a.u.):             2.307888094048902

 FOBSH| CASE1: no hop and no trivial crossing
 ENTER integrator.F
 STEP NUMBER                  =           18
 CPU TIME [s]                 =   0.23209936730563641       0.28331301154361826     

 *******************************************************************************
 ENSEMBLE TYPE                =                                              NVE
 STEP NUMBER                  =                                               18
 TIME [fs]                    =                                         1.800000
 CONSERVED QUANTITY [hartree] =                               0.485829222921E+01

                                              INSTANTANEOUS             AVERAGES
 CPU TIME [s]                 =                        0.23                 0.28
 ENERGY DRIFT PER ATOM [K]    =         -0.223628257069E-01  -0.342327358492E-01
 POTENTIAL ENERGY[hartree]    =          0.230788809405E+01   0.229841797803E+01
 KINETIC ENERGY [hartree]     =          0.255040413516E+01   0.255983920543E+01
 TEMPERATURE [K]              =                     597.221              599.431
 *******************************************************************************

 FOBSH| *** OFF-DIAGONAL GRADIENT CALCULATION
 FOBSH| Put former active state           3 in new active state           3
 RANDOM_NUMBER_HOPPING_PROBA  0.23087441688912894     
 FOBSH| ACTIVE STATE =            3

 ENERGY| Total FORCE_EVAL ( MIXED ) energy (a.u.):             2.325761842148562

 FOBSH| CASE1: no hop and no trivial crossing
 ENTER integrator.F
 STEP NUMBER                  =           19
 CPU TIME [s]                 =   0.21834281645715237       0.27989352759169900     

 *******************************************************************************
 ENSEMBLE TYPE                =                                              NVE
 STEP NUMBER                  =                                               19
 TIME [fs]                    =                                         1.900000
 CONSERVED QUANTITY [hartree] =                               0.485831077556E+01

                                              INSTANTANEOUS             AVERAGES
 CPU TIME [s]                 =                        0.22                 0.28
 ENERGY DRIFT PER ATOM [K]    =         -0.158556418977E-01  -0.332655203781E-01
 POTENTIAL ENERGY[hartree]    =          0.232576184215E+01   0.229985712877E+01
 KINETIC ENERGY [hartree]     =          0.253254893341E+01   0.255840287532E+01
 TEMPERATURE [K]              =                     593.040              599.094
 *******************************************************************************

 FOBSH| *** OFF-DIAGONAL GRADIENT CALCULATION
 FOBSH| Put former active state           3 in new active state           3
 RANDOM_NUMBER_HOPPING_PROBA  0.10818778711908025     
 FOBSH| ACTIVE STATE =            3

 ENERGY| Total FORCE_EVAL ( MIXED ) energy (a.u.):             2.345331291399673

 FOBSH| CASE1: no hop and no trivial crossing
 ENTER integrator.F
 STEP NUMBER                  =           20
 CPU TIME [s]                 =   0.23802688159048557       0.27780019529163835     

 *******************************************************************************
 ENSEMBLE TYPE                =                                              NVE
 STEP NUMBER                  =                                               20
 TIME [fs]                    =                                         2.000000
 CONSERVED QUANTITY [hartree] =                               0.485833076913E+01

                                              INSTANTANEOUS             AVERAGES
 CPU TIME [s]                 =                        0.24                 0.28
 ENERGY DRIFT PER ATOM [K]    =         -0.884068142475E-02  -0.320442784304E-01
 POTENTIAL ENERGY[hartree]    =          0.234533129140E+01   0.230213083691E+01
 KINETIC ENERGY [hartree]     =          0.251299947773E+01   0.255613270544E+01
 TEMPERATURE [K]              =                     588.462              598.563
 *******************************************************************************

 FOBSH| *** OFF-DIAGONAL GRADIENT CALCULATION
 FOBSH| Put former active state           3 in new active state           3
 RANDOM_NUMBER_HOPPING_PROBA  0.22324767369672568     
 FOBSH| ACTIVE STATE =            3

 ENERGY| Total FORCE_EVAL ( MIXED ) energy (a.u.):             2.366273103463373

 FOBSH| CASE1: no hop and no trivial crossing
 ENTER integrator.F
 STEP NUMBER                  =           21
 CPU TIME [s]                 =   0.24156844057142735       0.27607487363829497     

 *******************************************************************************
 ENSEMBLE TYPE                =                                              NVE
 STEP NUMBER                  =                                               21
 TIME [fs]                    =                                         2.100000
 CONSERVED QUANTITY [hartree] =                               0.485835193955E+01

                                              INSTANTANEOUS             AVERAGES
 CPU TIME [s]                 =                        0.24                 0.28
 ENERGY DRIFT PER ATOM [K]    =         -0.141281511796E-02  -0.305856373203E-01
 POTENTIAL ENERGY[hartree]    =          0.236627310346E+01   0.230518523055E+01
 KINETIC ENERGY [hartree]     =          0.249207883608E+01   0.255308252119E+01
 TEMPERATURE [K]              =                     583.563              597.849
 *******************************************************************************

 FOBSH| *** OFF-DIAGONAL GRADIENT CALCULATION
 FOBSH| Put former active state           3 in new active state           3
 RANDOM_NUMBER_HOPPING_PROBA  0.53970963304387498     
 FOBSH| ACTIVE STATE =            3

 ENERGY| Total FORCE_EVAL ( MIXED ) energy (a.u.):             2.388245079896584

 FOBSH| CASE1: no hop and no trivial crossing
 ENTER integrator.F
 STEP NUMBER                  =           22
 CPU TIME [s]                 =   0.23041075281798840       0.27399923178282654     

 *******************************************************************************
 ENSEMBLE TYPE                =                                              NVE
 STEP NUMBER                  =                                               22
 TIME [fs]                    =                                         2.200000
 CONSERVED QUANTITY [hartree] =                               0.485837399704E+01

                                              INSTANTANEOUS             AVERAGES
 CPU TIME [s]                 =                        0.23                 0.27
 ENERGY DRIFT PER ATOM [K]    =          0.632629184699E-02  -0.289078223582E-01
 POTENTIAL ENERGY[hartree]    =          0.238824507990E+01   0.230896067825E+01
 KINETIC ENERGY [hartree]     =          0.247012891714E+01   0.254931190282E+01
 TEMPERATURE [K]              =                     578.423              596.966
 *******************************************************************************

 FOBSH| *** OFF-DIAGONAL GRADIENT CALCULATION
 FOBSH| Put former active state           3 in new active state           3
 RANDOM_NUMBER_HOPPING_PROBA   3.7455510299360881E-002
 FOBSH| ACTIVE STATE =            3

 ENERGY| Total FORCE_EVAL ( MIXED ) energy (a.u.):             2.410890801936019

 FOBSH| CASE1: no hop and no trivial crossing
 ENTER integrator.F
 STEP NUMBER                  =           23
 CPU TIME [s]                 =   0.24989569932222366       0.27295125211062643     

 *******************************************************************************
 ENSEMBLE TYPE                =                                              NVE
 STEP NUMBER                  =                                               23
 TIME [fs]                    =                                         2.300000
 CONSERVED QUANTITY [hartree] =                               0.485839665680E+01

                                              INSTANTANEOUS             AVERAGES
 CPU TIME [s]                 =                        0.25                 0.27
 ENERGY DRIFT PER ATOM [K]    =          0.142767131104E-01  -0.270302338595E-01
 POTENTIAL ENERGY[hartree]    =          0.241089080194E+01   0.231339242276E+01
 KINETIC ENERGY [hartree]     =          0.244750585487E+01   0.254488555291E+01
 TEMPERATURE [K]              =                     573.126              595.929
 *******************************************************************************

 FOBSH| *** OFF-DIAGONAL GRADIENT CALCULATION
 FOBSH| Put former active state           3 in new active state           3
 RANDOM_NUMBER_HOPPING_PROBA  0.50599131459514457     
 FOBSH| ACTIVE STATE =            3

 ENERGY| Total FORCE_EVAL ( MIXED ) energy (a.u.):             2.433844377503465

 FOBSH| CASE1: no hop and no trivial crossing
 ENTER integrator.F
 STEP NUMBER                  =           24
 CPU TIME [s]                 =   0.23804963752627373       0.27149701816961169     

 *******************************************************************************
 ENSEMBLE TYPE                =                                              NVE
 STEP NUMBER                  =                                               24
 TIME [fs]                    =                                         2.400000
 CONSERVED QUANTITY [hartree] =                               0.485841958871E+01

                                              INSTANTANEOUS             AVERAGES
 CPU TIME [s]                 =                        0.24                 0.27
 ENERGY DRIFT PER ATOM [K]    =          0.223226177744E-01  -0.249738650415E-01
 POTENTIAL ENERGY[hartree]    =          0.243384437750E+01   0.231841125420E+01
 KINETIC ENERGY [hartree]     =          0.242457521120E+01   0.253987262201E+01
 TEMPERATURE [K]              =                     567.756              594.755
 *******************************************************************************

 FOBSH| *** OFF-DIAGONAL GRADIENT CALCULATION
 FOBSH| Put former active state           3 in new active state           3
 RANDOM_NUMBER_HOPPING_PROBA  0.97666355388844839     
 FOBSH| ATTEMPTED_HOP
 FOBSH| ACTIVE STATE =            3

 ENERGY| Total FORCE_EVAL ( MIXED ) energy (a.u.):             2.456735465968939

 FOBSH| Active state before the attempt to hop:           3
 FOBSH| Active state after the attempt to hop:           3
 FOBSH| CASE4: rejected hop and good overlap
 ENTER integrator.F
 STEP NUMBER                  =           25
 CPU TIME [s]                 =   0.26567601598799229       0.27126417808234693     

 *******************************************************************************
 ENSEMBLE TYPE                =                                              NVE
 STEP NUMBER                  =                                               25
 TIME [fs]                    =                                         2.500000
 CONSERVED QUANTITY [hartree] =                               0.485844247257E+01

                                              INSTANTANEOUS             AVERAGES
 CPU TIME [s]                 =                        0.27                 0.27
 ENERGY DRIFT PER ATOM [K]    =          0.303516651303E-01  -0.227608438346E-01
 POTENTIAL ENERGY[hartree]    =          0.245673546597E+01   0.232394422268E+01
 KINETIC ENERGY [hartree]     =          0.240170700660E+01   0.253434599739E+01
 TEMPERATURE [K]              =                     562.401              593.461
 *******************************************************************************

 FOBSH| *** OFF-DIAGONAL GRADIENT CALCULATION
 FOBSH| Put former active state           3 in new active state           3
 RANDOM_NUMBER_HOPPING_PROBA  0.12840580700626780     
 FOBSH| ACTIVE STATE =            3

 ENERGY| Total FORCE_EVAL ( MIXED ) energy (a.u.):             2.479194358075591

 FOBSH| CASE1: no hop and no trivial crossing
 ENTER integrator.F
 STEP NUMBER                  =           26
 CPU TIME [s]                 =   0.21011007577180862       0.26891209722424930     

 *******************************************************************************
 ENSEMBLE TYPE                =                                              NVE
 STEP NUMBER                  =                                               26
 TIME [fs]                    =                                         2.600000
 CONSERVED QUANTITY [hartree] =                               0.485846500472E+01

                                              INSTANTANEOUS             AVERAGES
 CPU TIME [s]                 =                        0.21                 0.27
 ENERGY DRIFT PER ATOM [K]    =          0.382573115976E-01  -0.204139917026E-01
 POTENTIAL ENERGY[hartree]    =          0.247919435808E+01   0.232991538173E+01
 KINETIC ENERGY [hartree]     =          0.237927064664E+01   0.252838156082E+01
 TEMPERATURE [K]              =                     557.147              592.064
 *******************************************************************************

 FOBSH| *** OFF-DIAGONAL GRADIENT CALCULATION
 FOBSH| Put former active state           3 in new active state           3
 RANDOM_NUMBER_HOPPING_PROBA  0.80710812468977888     
 FOBSH| ACTIVE STATE =            3

 ENERGY| Total FORCE_EVAL ( MIXED ) energy (a.u.):             2.500856953486426

 FOBSH| CASE1: no hop and no trivial crossing
 ENTER integrator.F
 STEP NUMBER                  =           27
 CPU TIME [s]                 =   0.20931047573685646       0.26670462976175324     

 *******************************************************************************
 ENSEMBLE TYPE                =                                              NVE
 STEP NUMBER                  =                                               27
 TIME [fs]                    =                                         2.700000
 CONSERVED QUANTITY [hartree] =                               0.485848688407E+01

                                              INSTANTANEOUS             AVERAGES
 CPU TIME [s]                 =                        0.21                 0.27
 ENERGY DRIFT PER ATOM [K]    =          0.459339161309E-01  -0.179566617828E-01
 POTENTIAL ENERGY[hartree]    =          0.250085695349E+01   0.233624655105E+01
 KINETIC ENERGY [hartree]     =          0.235762993058E+01   0.252205742637E+01
 TEMPERATURE [K]              =                     552.080              590.583
 *******************************************************************************

 FOBSH| *** OFF-DIAGONAL GRADIENT CALCULATION
 FOBSH| Put former active state           3 in new active state           3
 RANDOM_NUMBER_HOPPING_PROBA  0.36348714134779886     
 FOBSH| ACTIVE STATE =            3

 ENERGY| Total FORCE_EVAL ( MIXED ) energy (a.u.):             2.521369608219578

 FOBSH| CASE1: no hop and no trivial crossing
 ENTER integrator.F
 STEP NUMBER                  =           28
 CPU TIME [s]                 =   0.17589319869875908       0.26346136436664630     

 *******************************************************************************
 ENSEMBLE TYPE                =                                              NVE
 STEP NUMBER                  =                                               28
 TIME [fs]                    =                                         2.800000
 CONSERVED QUANTITY [hartree] =                               0.485850781164E+01

                                              INSTANTANEOUS             AVERAGES
 CPU TIME [s]                 =                        0.18                 0.26
 ENERGY DRIFT PER ATOM [K]    =          0.532765789887E-01  -0.154126174695E-01
 POTENTIAL ENERGY[hartree]    =          0.252136960822E+01   0.234285808881E+01
 KINETIC ENERGY [hartree]     =          0.233713820342E+01   0.251545316841E+01
 TEMPERATURE [K]              =                     547.281              589.037
 *******************************************************************************

 FOBSH| *** OFF-DIAGONAL GRADIENT CALCULATION
 FOBSH| Put former active state           3 in new active state           3
 RANDOM_NUMBER_HOPPING_PROBA  0.85522378722358217     
 FOBSH| ACTIVE STATE =            3

 ENERGY| Total FORCE_EVAL ( MIXED ) energy (a.u.):             2.540393956858391

 FOBSH| CASE1: no hop and no trivial crossing
 ENTER integrator.F
 STEP NUMBER                  =           29
 CPU TIME [s]                 =   0.16196565888822079       0.25996151245359711     

 *******************************************************************************
 ENSEMBLE TYPE                =                                              NVE
 STEP NUMBER                  =                                               29
 TIME [fs]                    =                                         2.900000
 CONSERVED QUANTITY [hartree] =                               0.485852749660E+01

                                              INSTANTANEOUS             AVERAGES
 CPU TIME [s]                 =                        0.16                 0.26
 ENERGY DRIFT PER ATOM [K]    =          0.601832592873E-01  -0.128058630986E-01
 POTENTIAL ENERGY[hartree]    =          0.254039395686E+01   0.234966967047E+01
 KINETIC ENERGY [hartree]     =          0.231813353974E+01   0.250864904328E+01
 TEMPERATURE [K]              =                     542.831              587.444
 *******************************************************************************

 FOBSH| *** OFF-DIAGONAL GRADIENT CALCULATION
 FOBSH| Put former active state           3 in new active state           3
 RANDOM_NUMBER_HOPPING_PROBA  0.67034729650063396     
 FOBSH| ACTIVE STATE =            3

 ENERGY| Total FORCE_EVAL ( MIXED ) energy (a.u.):             2.557611558514704

 FOBSH| CASE1: no hop and no trivial crossing
 ENTER integrator.F
 STEP NUMBER                  =           30
 CPU TIME [s]                 =   0.17676795087754726       0.25718839373439545     

 *******************************************************************************
 ENSEMBLE TYPE                =                                              NVE
 STEP NUMBER                  =                                               30
 TIME [fs]                    =                                         3.000000
 CONSERVED QUANTITY [hartree] =                               0.485854569872E+01

                                              INSTANTANEOUS             AVERAGES
 CPU TIME [s]                 =                        0.18                 0.26
 ENERGY DRIFT PER ATOM [K]    =          0.665696689391E-01  -0.101600120307E-01
 POTENTIAL ENERGY[hartree]    =          0.255761155851E+01   0.235660106673E+01
 KINETIC ENERGY [hartree]     =          0.230093414021E+01   0.250172521318E+01
 TEMPERATURE [K]              =                     538.804              585.822
 *******************************************************************************

 FOBSH| *** OFF-DIAGONAL GRADIENT CALCULATION
 FOBSH| Put former active state           3 in new active state           3
 RANDOM_NUMBER_HOPPING_PROBA  0.95194410928626894     
 FOBSH| ATTEMPTED_HOP
 FOBSH| ACTIVE STATE =            3

 ENERGY| Total FORCE_EVAL ( MIXED ) energy (a.u.):             2.572728078417928

 FOBSH| Active state before the attempt to hop:           3
 FOBSH| Active state after the attempt to hop:           3
 FOBSH| CASE4: rejected hop and good overlap
 ENTER integrator.F
 STEP NUMBER                  =           31
 CPU TIME [s]                 =   0.16593649424612522       0.25424478407348350     

 *******************************************************************************
 ENSEMBLE TYPE                =                                              NVE
 STEP NUMBER                  =                                               31
 TIME [fs]                    =                                         3.100000
 CONSERVED QUANTITY [hartree] =                               0.485856210015E+01

                                              INSTANTANEOUS             AVERAGES
 CPU TIME [s]                 =                        0.17                 0.25
 ENERGY DRIFT PER ATOM [K]    =          0.723242851854E-01  -0.749922824953E-02
 POTENTIAL ENERGY[hartree]    =          0.257272807842E+01   0.236357290582E+01
 KINETIC ENERGY [hartree]     =          0.228583402173E+01   0.249476098120E+01
 TEMPERATURE [K]              =                     535.268              584.192
 *******************************************************************************

 FOBSH| *** OFF-DIAGONAL GRADIENT CALCULATION
 FOBSH| Put former active state           3 in new active state           3
 RANDOM_NUMBER_HOPPING_PROBA  0.40303366510919353     
 FOBSH| ACTIVE STATE =            3

 ENERGY| Total FORCE_EVAL ( MIXED ) energy (a.u.):             2.585477583852305

 FOBSH| CASE1: no hop and no trivial crossing
 ENTER integrator.F
 STEP NUMBER                  =           32
 CPU TIME [s]                 =   0.17728686332702637       0.25183984905015672     

 *******************************************************************************
 ENSEMBLE TYPE                =                                              NVE
 STEP NUMBER                  =                                               32
 TIME [fs]                    =                                         3.200000
 CONSERVED QUANTITY [hartree] =                               0.485857651647E+01

                                              INSTANTANEOUS             AVERAGES
 CPU TIME [s]                 =                        0.18                 0.25
 ENERGY DRIFT PER ATOM [K]    =          0.773824061198E-01  -0.484667717549E-02
 POTENTIAL ENERGY[hartree]    =          0.258547758385E+01   0.237050742701E+01
 KINETIC ENERGY [hartree]     =          0.227309893262E+01   0.248783404218E+01
 TEMPERATURE [K]              =                     532.286              582.569
 *******************************************************************************

 FOBSH| *** OFF-DIAGONAL GRADIENT CALCULATION
 FOBSH| Put former active state           3 in new active state           3
 RANDOM_NUMBER_HOPPING_PROBA   6.3990691283266954E-002
 FOBSH| ACTIVE STATE =            3

 ENERGY| Total FORCE_EVAL ( MIXED ) energy (a.u.):             2.595626028270540

 FOBSH| *** WARNING: Projection to avoid spurious transfer get lambda =    1.0010299489355445      ***
 FOBSH| CASE1: no hop and no trivial crossing
 ENTER integrator.F
 STEP NUMBER                  =           33
 CPU TIME [s]                 =   0.17851828783750534       0.24961798355886425     

 *******************************************************************************
 ENSEMBLE TYPE                =                                              NVE
 STEP NUMBER                  =                                               33
 TIME [fs]                    =                                         3.300000
 CONSERVED QUANTITY [hartree] =                               0.485858874404E+01

                                              INSTANTANEOUS             AVERAGES
 CPU TIME [s]                 =                        0.18                 0.25
 ENERGY DRIFT PER ATOM [K]    =          0.816725801690E-01  -0.222488149838E-02
 POTENTIAL ENERGY[hartree]    =          0.259562602827E+01   0.237732920281E+01
 KINETIC ENERGY [hartree]     =          0.226296271577E+01   0.248101975956E+01
 TEMPERATURE [K]              =                     529.912              580.974
 *******************************************************************************

 FOBSH| *** OFF-DIAGONAL GRADIENT CALCULATION
 FOBSH| Put former active state           3 in new active state           3
 RANDOM_NUMBER_HOPPING_PROBA  0.44240387110505380     
 FOBSH| ACTIVE STATE =            3

 ENERGY| Total FORCE_EVAL ( MIXED ) energy (a.u.):             2.602974490227552

 FOBSH| *** WARNING: Projection to avoid spurious transfer get lambda =    1.0012375331656655      ***
 FOBSH| CASE1: no hop and no trivial crossing
 ENTER integrator.F
 STEP NUMBER                  =           34
 CPU TIME [s]                 =   0.16285395808517933       0.24706610045669705     

 *******************************************************************************
 ENSEMBLE TYPE                =                                              NVE
 STEP NUMBER                  =                                               34
 TIME [fs]                    =                                         3.400000
 CONSERVED QUANTITY [hartree] =                               0.485859860046E+01

                                              INSTANTANEOUS             AVERAGES
 CPU TIME [s]                 =                        0.16                 0.25
 ENERGY DRIFT PER ATOM [K]    =          0.851308114477E-01   0.344403588268E-03
 POTENTIAL ENERGY[hartree]    =          0.260297449023E+01   0.238396582891E+01
 KINETIC ENERGY [hartree]     =          0.225562411024E+01   0.247439047576E+01
 TEMPERATURE [K]              =                     528.193              579.421
 *******************************************************************************

 FOBSH| *** OFF-DIAGONAL GRADIENT CALCULATION
 FOBSH| Put former active state           3 in new active state           3
 RANDOM_NUMBER_HOPPING_PROBA  0.37053832739404691     
 FOBSH| ACTIVE STATE =            3

 ENERGY| Total FORCE_EVAL ( MIXED ) energy (a.u.):             2.607361980005230

 FOBSH| CASE1: no hop and no trivial crossing
 ENTER integrator.F
 STEP NUMBER                  =           35
 CPU TIME [s]                 =   0.17742903530597687       0.24507647002381933     

 *******************************************************************************
 ENSEMBLE TYPE                =                                              NVE
 STEP NUMBER                  =                                               35
 TIME [fs]                    =                                         3.500000
 CONSERVED QUANTITY [hartree] =                               0.485860594804E+01

                                              INSTANTANEOUS             AVERAGES
 CPU TIME [s]                 =                        0.18                 0.25
 ENERGY DRIFT PER ATOM [K]    =          0.877087865464E-01   0.284052881564E-02
 POTENTIAL ENERGY[hartree]    =          0.260736198001E+01   0.239034857608E+01
 KINETIC ENERGY [hartree]     =          0.225124396803E+01   0.246801486125E+01
 TEMPERATURE [K]              =                     527.168              577.928
 *******************************************************************************

 FOBSH| *** OFF-DIAGONAL GRADIENT CALCULATION
 FOBSH| Put former active state           3 in new active state           3
 RANDOM_NUMBER_HOPPING_PROBA  0.79109232280105435     
 FOBSH| ACTIVE STATE =            3

 ENERGY| Total FORCE_EVAL ( MIXED ) energy (a.u.):             2.608667691612349

 FOBSH| CASE1: no hop and no trivial crossing
 ENTER integrator.F
 STEP NUMBER                  =           36
 CPU TIME [s]                 =   0.15970708057284355       0.24270509809462554     

 *******************************************************************************
 ENSEMBLE TYPE                =                                              NVE
 STEP NUMBER                  =                                               36
 TIME [fs]                    =                                         3.600000
 CONSERVED QUANTITY [hartree] =                               0.485861067996E+01

                                              INSTANTANEOUS             AVERAGES
 CPU TIME [s]                 =                        0.16                 0.24
 ENERGY DRIFT PER ATOM [K]    =          0.893690331083E-01   0.524409837933E-02
 POTENTIAL ENERGY[hartree]    =          0.260866769161E+01   0.239641299596E+01
 KINETIC ENERGY [hartree]     =          0.224994298835E+01   0.246195730922E+01
 TEMPERATURE [K]              =                     526.863              576.510
 *******************************************************************************

 FOBSH| *** OFF-DIAGONAL GRADIENT CALCULATION
 FOBSH| Put former active state           3 in new active state           3
 RANDOM_NUMBER_HOPPING_PROBA   9.1827710182444136E-002
 FOBSH| ACTIVE STATE =            3

 ENERGY| Total FORCE_EVAL ( MIXED ) energy (a.u.):             2.606812722083725

 FOBSH| CASE1: no hop and no trivial crossing
 ENTER integrator.F
 STEP NUMBER                  =           37
 CPU TIME [s]                 =   0.10036726295948029       0.23885812957745947     

 *******************************************************************************
 ENSEMBLE TYPE                =                                              NVE
 STEP NUMBER                  =                                               37
 TIME [fs]                    =                                         3.700000
 CONSERVED QUANTITY [hartree] =                               0.485861271011E+01

                                              INSTANTANEOUS             AVERAGES
 CPU TIME [s]                 =                        0.10                 0.24
 ENERGY DRIFT PER ATOM [K]    =          0.900813338895E-01   0.753699663636E-02
 POTENTIAL ENERGY[hartree]    =          0.260681272208E+01   0.240209947504E+01
 KINETIC ENERGY [hartree]     =          0.225179998803E+01   0.245627738162E+01
 TEMPERATURE [K]              =                     527.298              575.180
 *******************************************************************************

 FOBSH| *** OFF-DIAGONAL GRADIENT CALCULATION
 FOBSH| Put former active state           3 in new active state           3
 RANDOM_NUMBER_HOPPING_PROBA  0.93278955296152910     
 FOBSH| ACTIVE STATE =            3

 ENERGY| Total FORCE_EVAL ( MIXED ) energy (a.u.):             2.601761310760437

 FOBSH| CASE1: no hop and no trivial crossing
 ENTER integrator.F
 STEP NUMBER                  =           38
 CPU TIME [s]                 =    7.7990302816033363E-002  0.23462476571531665     

 *******************************************************************************
 ENSEMBLE TYPE                =                                              NVE
 STEP NUMBER                  =                                               38
 TIME [fs]                    =                                         3.800000
 CONSERVED QUANTITY [hartree] =                               0.485861202937E+01

                                              INSTANTANEOUS             AVERAGES
 CPU TIME [s]                 =                        0.08                 0.23
 ENERGY DRIFT PER ATOM [K]    =          0.898424860732E-01   0.970293056891E-02
 POTENTIAL ENERGY[hartree]    =          0.260176131076E+01   0.240735373388E+01
 KINETIC ENERGY [hartree]     =          0.225685071861E+01   0.245102931155E+01
 TEMPERATURE [K]              =                     528.481              573.951
 *******************************************************************************

 FOBSH| *** OFF-DIAGONAL GRADIENT CALCULATION
 FOBSH| Put former active state           3 in new active state           3
 RANDOM_NUMBER_HOPPING_PROBA  0.66895875268229765     
 FOBSH| ACTIVE STATE =            3

 ENERGY| Total FORCE_EVAL ( MIXED ) energy (a.u.):             2.593521395359433

 FOBSH| CASE1: no hop and no trivial crossing
 ENTER integrator.F
 STEP NUMBER                  =           39
 CPU TIME [s]                 =    7.8403359279036522E-002  0.23061908862720687     

 *******************************************************************************
 ENSEMBLE TYPE                =                                              NVE
 STEP NUMBER                  =                                               39
 TIME [fs]                    =                                         3.900000
 CONSERVED QUANTITY [hartree] =                               0.485860861234E+01

                                              INSTANTANEOUS             AVERAGES
 CPU TIME [s]                 =                        0.08                 0.23
 ENERGY DRIFT PER ATOM [K]    =          0.886435851452E-01   0.117270499170E-01
 POTENTIAL ENERGY[hartree]    =          0.259352139536E+01   0.241212726366E+01
 KINETIC ENERGY [hartree]     =          0.226508721698E+01   0.244626156553E+01
 TEMPERATURE [K]              =                     530.409              572.835
 *******************************************************************************

 FOBSH| *** OFF-DIAGONAL GRADIENT CALCULATION
 FOBSH| Put former active state           3 in new active state           3
 RANDOM_NUMBER_HOPPING_PROBA   7.0495669884397497E-002
 FOBSH| ACTIVE STATE =            3

 ENERGY| Total FORCE_EVAL ( MIXED ) energy (a.u.):             2.582144738667006

 FOBSH| CASE1: no hop and no trivial crossing
 ENTER integrator.F
 STEP NUMBER                  =           40
 CPU TIME [s]                 =    7.8762110322713852E-002  0.22682266416959457     

 *******************************************************************************
 ENSEMBLE TYPE                =                                              NVE
 STEP NUMBER                  =                                               40
 TIME [fs]                    =                                         4.000000
 CONSERVED QUANTITY [hartree] =                               0.485860250343E+01

                                              INSTANTANEOUS             AVERAGES
 CPU TIME [s]                 =                        0.08                 0.23
 ENERGY DRIFT PER ATOM [K]    =          0.865002076736E-01   0.135963788609E-01
 POTENTIAL ENERGY[hartree]    =          0.258214473867E+01   0.241637770053E+01
 KINETIC ENERGY [hartree]     =          0.227645776476E+01   0.244201647051E+01
 TEMPERATURE [K]              =                     533.072              571.840
 *******************************************************************************

 FOBSH| *** OFF-DIAGONAL GRADIENT CALCULATION
 FOBSH| Put former active state           3 in new active state           3
 RANDOM_NUMBER_HOPPING_PROBA  0.44837893062802447     
 FOBSH| ACTIVE STATE =            3

 ENERGY| Total FORCE_EVAL ( MIXED ) energy (a.u.):             2.567726373963328

 FOBSH| CASE1: no hop and no trivial crossing
 ENTER integrator.F
 STEP NUMBER                  =           41
 CPU TIME [s]                 =    7.8258488327264786E-002  0.22319914768563531     

 *******************************************************************************
 ENSEMBLE TYPE                =                                              NVE
 STEP NUMBER                  =                                               41
 TIME [fs]                    =                                         4.100000
 CONSERVED QUANTITY [hartree] =                               0.485859376323E+01

                                              INSTANTANEOUS             AVERAGES
 CPU TIME [s]                 =                        0.08                 0.22
 ENERGY DRIFT PER ATOM [K]    =          0.834336161383E-01   0.152997261116E-01
 POTENTIAL ENERGY[hartree]    =          0.256772637396E+01   0.242006913159E+01
 KINETIC ENERGY [hartree]     =          0.229086738927E+01   0.243832990755E+01
 TEMPERATURE [K]              =                     536.446              570.977
 *******************************************************************************

 FOBSH| *** OFF-DIAGONAL GRADIENT CALCULATION
 FOBSH| Put former active state           3 in new active state           3
 RANDOM_NUMBER_HOPPING_PROBA  0.53199482212190596     
 FOBSH| ACTIVE STATE =            3

 ENERGY| Total FORCE_EVAL ( MIXED ) energy (a.u.):             2.550403576432535

 FOBSH| CASE1: no hop and no trivial crossing
 ENTER integrator.F
 STEP NUMBER                  =           42
 CPU TIME [s]                 =   0.11904598027467728       0.22071931036632675     

 *******************************************************************************
 ENSEMBLE TYPE                =                                              NVE
 STEP NUMBER                  =                                               42
 TIME [fs]                    =                                         4.200000
 CONSERVED QUANTITY [hartree] =                               0.485858249320E+01

                                              INSTANTANEOUS             AVERAGES
 CPU TIME [s]                 =                        0.12                 0.22
 ENERGY DRIFT PER ATOM [K]    =          0.794794065530E-01   0.168278137412E-01
 POTENTIAL ENERGY[hartree]    =          0.255040357643E+01   0.242317233266E+01
 KINETIC ENERGY [hartree]     =          0.230817891677E+01   0.243523107444E+01
 TEMPERATURE [K]              =                     540.500              570.252
 *******************************************************************************

 FOBSH| *** OFF-DIAGONAL GRADIENT CALCULATION
 FOBSH| Put former active state           3 in new active state           3
 RANDOM_NUMBER_HOPPING_PROBA  0.57730720845980099     
 FOBSH| ACTIVE STATE =            3

 ENERGY| Total FORCE_EVAL ( MIXED ) energy (a.u.):             2.530354228090866

 FOBSH| CASE1: no hop and no trivial crossing
 ENTER integrator.F
 STEP NUMBER                  =           43
 CPU TIME [s]                 =    9.1533899307250977E-002  0.21771499848123199     

 *******************************************************************************
 ENSEMBLE TYPE                =                                              NVE
 STEP NUMBER                  =                                               43
 TIME [fs]                    =                                         4.300000
 CONSERVED QUANTITY [hartree] =                               0.485856882910E+01

                                              INSTANTANEOUS             AVERAGES
 CPU TIME [s]                 =                        0.09                 0.22
 ENERGY DRIFT PER ATOM [K]    =          0.746852109653E-01   0.181733346068E-01
 POTENTIAL ENERGY[hartree]    =          0.253035422809E+01   0.242566493488E+01
 KINETIC ENERGY [hartree]     =          0.232821460101E+01   0.243274231924E+01
 TEMPERATURE [K]              =                     545.192              569.669
 *******************************************************************************

 FOBSH| *** OFF-DIAGONAL GRADIENT CALCULATION
 FOBSH| Put former active state           3 in new active state           3
 RANDOM_NUMBER_HOPPING_PROBA   1.6928433561957019E-002
 FOBSH| ACTIVE STATE =            3

 ENERGY| Total FORCE_EVAL ( MIXED ) energy (a.u.):             2.507794624778997

 FOBSH| CASE1: no hop and no trivial crossing
 ENTER integrator.F
 STEP NUMBER                  =           44
 CPU TIME [s]                 =   0.15867881476879120       0.21637326703322196     

 *******************************************************************************
 ENSEMBLE TYPE                =                                              NVE
 STEP NUMBER                  =                                               44
 TIME [fs]                    =                                         4.400000
 CONSERVED QUANTITY [hartree] =                               0.485855293280E+01

                                              INSTANTANEOUS             AVERAGES
 CPU TIME [s]                 =                        0.16                 0.22
 ENERGY DRIFT PER ATOM [K]    =          0.691078217065E-01   0.193309365864E-01
 POTENTIAL ENERGY[hartree]    =          0.250779462478E+01   0.242753151874E+01
 KINETIC ENERGY [hartree]     =          0.235075830802E+01   0.243087904626E+01
 TEMPERATURE [K]              =                     550.471              569.232
 *******************************************************************************

 FOBSH| *** OFF-DIAGONAL GRADIENT CALCULATION
 FOBSH| Put former active state           3 in new active state           3
 RANDOM_NUMBER_HOPPING_PROBA  0.13144936141126493     
 FOBSH| ACTIVE STATE =            3

 ENERGY| Total FORCE_EVAL ( MIXED ) energy (a.u.):             2.482976857914122

 FOBSH| CASE1: no hop and no trivial crossing
 ENTER integrator.F
 STEP NUMBER                  =           45
 CPU TIME [s]                 =   0.18132820166647434       0.21559448780284982     

 *******************************************************************************
 ENSEMBLE TYPE                =                                              NVE
 STEP NUMBER                  =                                               45
 TIME [fs]                    =                                         4.500000
 CONSERVED QUANTITY [hartree] =                               0.485853498568E+01

                                              INSTANTANEOUS             AVERAGES
 CPU TIME [s]                 =                        0.18                 0.22
 ENERGY DRIFT PER ATOM [K]    =          0.628108810570E-01   0.202971575746E-01
 POTENTIAL ENERGY[hartree]    =          0.248297685791E+01   0.242876363739E+01
 KINETIC ENERGY [hartree]     =          0.237555812776E+01   0.242964969252E+01
 TEMPERATURE [K]              =                     556.278              568.945
 *******************************************************************************

 FOBSH| *** OFF-DIAGONAL GRADIENT CALCULATION
 FOBSH| Put former active state           3 in new active state           3
 RANDOM_NUMBER_HOPPING_PROBA   6.6529961963703879E-002
 FOBSH| ACTIVE STATE =            3

 ENERGY| Total FORCE_EVAL ( MIXED ) energy (a.u.):             2.456185874439225

 FOBSH| CASE1: no hop and no trivial crossing
 ENTER integrator.F
 STEP NUMBER                  =           46
 CPU TIME [s]                 =   0.16304040886461735       0.21445200782593168     

 *******************************************************************************
 ENSEMBLE TYPE                =                                              NVE
 STEP NUMBER                  =                                               46
 TIME [fs]                    =                                         4.600000
 CONSERVED QUANTITY [hartree] =                               0.485851520972E+01

                                              INSTANTANEOUS             AVERAGES
 CPU TIME [s]                 =                        0.16                 0.21
 ENERGY DRIFT PER ATOM [K]    =          0.558722746525E-01   0.210705296850E-01
 POTENTIAL ENERGY[hartree]    =          0.245618587444E+01   0.242935977298E+01
 KINETIC ENERGY [hartree]     =          0.240232933528E+01   0.242905577171E+01
 TEMPERATURE [K]              =                     562.547              568.806
 *******************************************************************************

 FOBSH| *** OFF-DIAGONAL GRADIENT CALCULATION
 FOBSH| Put former active state           3 in new active state           3
 RANDOM_NUMBER_HOPPING_PROBA  0.13624522447097273     
 FOBSH| ACTIVE STATE =            3

 ENERGY| Total FORCE_EVAL ( MIXED ) energy (a.u.):             2.427736059474028

 FOBSH| CASE1: no hop and no trivial crossing
 ENTER integrator.F
 STEP NUMBER                  =           47
 CPU TIME [s]                 =   0.10680162720382214       0.21216157419567405     

 *******************************************************************************
 ENSEMBLE TYPE                =                                              NVE
 STEP NUMBER                  =                                               47
 TIME [fs]                    =                                         4.700000
 CONSERVED QUANTITY [hartree] =                               0.485849379364E+01

                                              INSTANTANEOUS             AVERAGES
 CPU TIME [s]                 =                        0.11                 0.21
 ENERGY DRIFT PER ATOM [K]    =          0.483582126581E-01   0.216511186844E-01
 POTENTIAL ENERGY[hartree]    =          0.242773605947E+01   0.242932522588E+01
 KINETIC ENERGY [hartree]     =          0.243075773416E+01   0.242909198368E+01
 TEMPERATURE [K]              =                     569.204              568.814
 *******************************************************************************

 FOBSH| *** OFF-DIAGONAL GRADIENT CALCULATION
 FOBSH| Put former active state           3 in new active state           3
 RANDOM_NUMBER_HOPPING_PROBA  0.53373438748921098     
 FOBSH| ACTIVE STATE =            3

 ENERGY| Total FORCE_EVAL ( MIXED ) energy (a.u.):             2.397967895825377

 FOBSH| CASE1: no hop and no trivial crossing
 ENTER integrator.F
 STEP NUMBER                  =           48
 CPU TIME [s]                 =    7.8906709328293800E-002  0.20938543117760361     

 *******************************************************************************
 ENSEMBLE TYPE                =                                              NVE
 STEP NUMBER                  =                                               48
 TIME [fs]                    =                                         4.800000
 CONSERVED QUANTITY [hartree] =                               0.485847091862E+01

                                              INSTANTANEOUS             AVERAGES
 CPU TIME [s]                 =                        0.08                 0.21
 ENERGY DRIFT PER ATOM [K]    =          0.403322678934E-01   0.220403092929E-01
 POTENTIAL ENERGY[hartree]    =          0.239796789583E+01   0.242867194817E+01
 KINETIC ENERGY [hartree]     =          0.246050302279E+01   0.242974638032E+01
 TEMPERATURE [K]              =                     576.169              568.967
 *******************************************************************************

 FOBSH| *** OFF-DIAGONAL GRADIENT CALCULATION
 FOBSH| Put former active state           3 in new active state           3
 RANDOM_NUMBER_HOPPING_PROBA  0.29876304793700437     
 FOBSH| ACTIVE STATE =            3

 ENERGY| Total FORCE_EVAL ( MIXED ) energy (a.u.):             2.367245036331668

 FOBSH| CASE1: no hop and no trivial crossing
 ENTER integrator.F
 STEP NUMBER                  =           49
 CPU TIME [s]                 =    8.9490743353962898E-002  0.20693860081385584     

 *******************************************************************************
 ENSEMBLE TYPE                =                                              NVE
 STEP NUMBER                  =                                               49
 TIME [fs]                    =                                         4.900000
[...]

 ENERGY| Total FORCE_EVAL ( MIXED ) energy (a.u.):             2.513177775981124

 FOBSH| Active state after the attempt to hop:           2
 FOBSH| *** WARNING: Projection to avoid spurious transfer get lambda =    1.0011056881229816      ***
 FOBSH| Possible trivial crossing
 FOBSH| CASE5: successful hop and maybe a crossing, final overlap is :   1.0686378769603733E-002
 FOBSH| We were localized on molecule           1
 FOBSH| And now on molecule           2
 ENTER integrator.F
 STEP NUMBER                  =          191
 CPU TIME [s]                 =    9.8206795752048492E-002  0.15450903057505933     

 *******************************************************************************
 ENSEMBLE TYPE                =                                              NVE
 STEP NUMBER                  =                                              191
 TIME [fs]                    =                                        19.100000
 CONSERVED QUANTITY [hartree] =                               0.485843328438E+01

                                              INSTANTANEOUS             AVERAGES
 CPU TIME [s]                 =                        0.10                 0.15
 ENERGY DRIFT PER ATOM [K]    =          0.271278917752E-01   0.103910294161E-01
 POTENTIAL ENERGY[hartree]    =          0.251317777598E+01   0.239111660068E+01
 KINETIC ENERGY [hartree]     =          0.234525550840E+01   0.246726886691E+01
 TEMPERATURE [K]              =                     549.182              577.754
 *******************************************************************************

 FOBSH| *** OFF-DIAGONAL GRADIENT CALCULATION
 FOBSH| Put former active state           2 in new active state           2
 RANDOM_NUMBER_HOPPING_PROBA  0.47798716356543131     
 FOBSH| ACTIVE STATE =            2

 ENERGY| Total FORCE_EVAL ( MIXED ) energy (a.u.):             2.543592602819716

 FOBSH| *** WARNING: Projection to avoid spurious transfer get lambda =    1.0010504257705222      ***
 FOBSH| CASE1: no hop and no trivial crossing
 ENTER integrator.F
 STEP NUMBER                  =          192
 CPU TIME [s]                 =    7.6618392020463943E-002  0.15410335016592080     

 *******************************************************************************
 ENSEMBLE TYPE                =                                              NVE
 STEP NUMBER                  =                                              192
 TIME [fs]                    =                                        19.200000
 CONSERVED QUANTITY [hartree] =                               0.485845706198E+01

                                              INSTANTANEOUS             AVERAGES
 CPU TIME [s]                 =                        0.08                 0.15
 ENERGY DRIFT PER ATOM [K]    =          0.354705162913E-01   0.105216517435E-01
 POTENTIAL ENERGY[hartree]    =          0.254359260282E+01   0.239191074652E+01
 KINETIC ENERGY [hartree]     =          0.231486445916E+01   0.246647509395E+01
 TEMPERATURE [K]              =                     542.066              577.568
 *******************************************************************************

 FOBSH| *** OFF-DIAGONAL GRADIENT CALCULATION
 FOBSH| Put former active state           2 in new active state           2
 RANDOM_NUMBER_HOPPING_PROBA  0.19068212869155288     
 FOBSH| ACTIVE STATE =            2

 ENERGY| Total FORCE_EVAL ( MIXED ) energy (a.u.):             2.573152029138251

 FOBSH| CASE1: no hop and no trivial crossing
 ENTER integrator.F
 STEP NUMBER                  =          193
 CPU TIME [s]                 =    7.5636787340044975E-002  0.15369678766423234     

 *******************************************************************************
 ENSEMBLE TYPE                =                                              NVE
 STEP NUMBER                  =                                              193
 TIME [fs]                    =                                        19.300000
 CONSERVED QUANTITY [hartree] =                               0.485848038683E+01

                                              INSTANTANEOUS             AVERAGES
 CPU TIME [s]                 =                        0.08                 0.15
 ENERGY DRIFT PER ATOM [K]    =          0.436542904123E-01   0.106933234465E-01
 POTENTIAL ENERGY[hartree]    =          0.257315202914E+01   0.239284982053E+01
 KINETIC ENERGY [hartree]     =          0.228532835769E+01   0.246553650983E+01
 TEMPERATURE [K]              =                     535.149              577.348
 *******************************************************************************

 FOBSH| *** OFF-DIAGONAL GRADIENT CALCULATION
 FOBSH| Put former active state           2 in new active state           2
 RANDOM_NUMBER_HOPPING_PROBA   3.9019510409808292E-002
 FOBSH| ACTIVE STATE =            2

 ENERGY| Total FORCE_EVAL ( MIXED ) energy (a.u.):             2.601487183724594

 FOBSH| CASE1: no hop and no trivial crossing
 ENTER integrator.F
 STEP NUMBER                  =          194
 CPU TIME [s]                 =    7.2668416425585747E-002  0.15327911564753827     

 *******************************************************************************
 ENSEMBLE TYPE                =                                              NVE
 STEP NUMBER                  =                                              194
 TIME [fs]                    =                                        19.400000
 CONSERVED QUANTITY [hartree] =                               0.485850296428E+01

                                              INSTANTANEOUS             AVERAGES
 CPU TIME [s]                 =                        0.07                 0.15
 ENERGY DRIFT PER ATOM [K]    =          0.515758316718E-01   0.109040580250E-01
 POTENTIAL ENERGY[hartree]    =          0.260148718372E+01   0.239392527085E+01
 KINETIC ENERGY [hartree]     =          0.225701578056E+01   0.246446166071E+01
 TEMPERATURE [K]              =                     528.519              577.096
 *******************************************************************************

 FOBSH| *** OFF-DIAGONAL GRADIENT CALCULATION
 FOBSH| Put former active state           2 in new active state           2
 RANDOM_NUMBER_HOPPING_PROBA  0.20961789847363788     
 FOBSH| ACTIVE STATE =            2

 ENERGY| Total FORCE_EVAL ( MIXED ) energy (a.u.):             2.628241269534747

 FOBSH| CASE1: no hop and no trivial crossing
 ENTER integrator.F
 STEP NUMBER                  =          195
 CPU TIME [s]                 =    7.1141190826892853E-002  0.15285789552025292     

 *******************************************************************************
 ENSEMBLE TYPE                =                                              NVE
 STEP NUMBER                  =                                              195
 TIME [fs]                    =                                        19.500000
 CONSERVED QUANTITY [hartree] =                               0.485852450210E+01

                                              INSTANTANEOUS             AVERAGES
 CPU TIME [s]                 =                        0.07                 0.15
 ENERGY DRIFT PER ATOM [K]    =          0.591326056303E-01   0.111513839101E-01
 POTENTIAL ENERGY[hartree]    =          0.262824126953E+01   0.239512689136E+01
 KINETIC ENERGY [hartree]     =          0.223028323256E+01   0.246326074569E+01
 TEMPERATURE [K]              =                     522.259              576.815
 *******************************************************************************

 FOBSH| *** OFF-DIAGONAL GRADIENT CALCULATION
 FOBSH| Put former active state           2 in new active state           2
 RANDOM_NUMBER_HOPPING_PROBA  0.25814674508164709     
 FOBSH| ACTIVE STATE =            2

 ENERGY| Total FORCE_EVAL ( MIXED ) energy (a.u.):             2.653074294753467

 FOBSH| CASE1: no hop and no trivial crossing
 ENTER integrator.F
 STEP NUMBER                  =          196
 CPU TIME [s]                 =    7.9178428277373314E-002  0.15248197987105452     

 *******************************************************************************
 ENSEMBLE TYPE                =                                              NVE
 STEP NUMBER                  =                                              196
 TIME [fs]                    =                                        19.600000
 CONSERVED QUANTITY [hartree] =                               0.485854467850E+01

                                              INSTANTANEOUS             AVERAGES
 CPU TIME [s]                 =                        0.08                 0.15
 ENERGY DRIFT PER ATOM [K]    =          0.662117135238E-01   0.114323039592E-01
 POTENTIAL ENERGY[hartree]    =          0.265307429475E+01   0.239644294954E+01
 KINETIC ENERGY [hartree]     =          0.220547038375E+01   0.246194548874E+01
 TEMPERATURE [K]              =                     516.449              576.507
 *******************************************************************************

 FOBSH| *** OFF-DIAGONAL GRADIENT CALCULATION
 FOBSH| Put former active state           2 in new active state           2
 RANDOM_NUMBER_HOPPING_PROBA  0.71866270817859179     
 FOBSH| ACTIVE STATE =            2

 ENERGY| Total FORCE_EVAL ( MIXED ) energy (a.u.):             2.675667873148748

 FOBSH| CASE1: no hop and no trivial crossing
 ENTER integrator.F
 STEP NUMBER                  =          197
 CPU TIME [s]                 =    5.4677736014127731E-002  0.15198551162812596     

 *******************************************************************************
 ENSEMBLE TYPE                =                                              NVE
 STEP NUMBER                  =                                              197
 TIME [fs]                    =                                        19.700000
 CONSERVED QUANTITY [hartree] =                               0.485856320946E+01

                                              INSTANTANEOUS             AVERAGES
 CPU TIME [s]                 =                        0.05                 0.15
 ENERGY DRIFT PER ATOM [K]    =          0.727134995876E-01   0.117433760182E-01
 POTENTIAL ENERGY[hartree]    =          0.267566787315E+01   0.239786033494E+01
 KINETIC ENERGY [hartree]     =          0.218289533631E+01   0.246052899051E+01
 TEMPERATURE [K]              =                     511.163              576.176
 *******************************************************************************

 FOBSH| *** OFF-DIAGONAL GRADIENT CALCULATION
 FOBSH| Put former active state           2 in new active state           2
 RANDOM_NUMBER_HOPPING_PROBA  0.40493253623739994     
 FOBSH| ACTIVE STATE =            2

 ENERGY| Total FORCE_EVAL ( MIXED ) energy (a.u.):             2.695729628657884

 FOBSH| CASE1: no hop and no trivial crossing
 ENTER integrator.F
 STEP NUMBER                  =          198
 CPU TIME [s]                 =    4.1173633188009262E-002  0.15142585567640821     

 *******************************************************************************
 ENSEMBLE TYPE                =                                              NVE
 STEP NUMBER                  =                                              198
 TIME [fs]                    =                                        19.800000
 CONSERVED QUANTITY [hartree] =                               0.485857985300E+01

                                              INSTANTANEOUS             AVERAGES
 CPU TIME [s]                 =                        0.04                 0.15
 ENERGY DRIFT PER ATOM [K]    =          0.785530634147E-01   0.120807986818E-01
 POTENTIAL ENERGY[hartree]    =          0.269572962866E+01   0.239936472531E+01
 KINETIC ENERGY [hartree]     =          0.216285022434E+01   0.245902556239E+01
 TEMPERATURE [K]              =                     506.469              575.823
 *******************************************************************************

 FOBSH| *** OFF-DIAGONAL GRADIENT CALCULATION
 FOBSH| Put former active state           2 in new active state           2
 RANDOM_NUMBER_HOPPING_PROBA  0.39979889317373046     
 FOBSH| ACTIVE STATE =            2

 ENERGY| Total FORCE_EVAL ( MIXED ) energy (a.u.):             2.712997115432147

 FOBSH| CASE1: no hop and no trivial crossing
 ENTER integrator.F
 STEP NUMBER                  =          199
 CPU TIME [s]                 =    4.1078841313719749E-002  0.15087134806654545     

 *******************************************************************************
 ENSEMBLE TYPE                =                                              NVE
 STEP NUMBER                  =                                              199
 TIME [fs]                    =                                        19.900000
 CONSERVED QUANTITY [hartree] =                               0.485859440007E+01

                                              INSTANTANEOUS             AVERAGES
 CPU TIME [s]                 =                        0.04                 0.15
 ENERGY DRIFT PER ATOM [K]    =          0.836570597511E-01   0.124404783857E-01
 POTENTIAL ENERGY[hartree]    =          0.271299711543E+01   0.240094076747E+01
 KINETIC ENERGY [hartree]     =          0.214559728464E+01   0.245745054592E+01
 TEMPERATURE [K]              =                     502.429              575.455
 *******************************************************************************

 FOBSH| *** OFF-DIAGONAL GRADIENT CALCULATION
 FOBSH| Put former active state           2 in new active state           2
 RANDOM_NUMBER_HOPPING_PROBA  0.61636574408134326     
 FOBSH| ACTIVE STATE =            2

 ENERGY| Total FORCE_EVAL ( MIXED ) energy (a.u.):             2.727241125686797

 FOBSH| CASE1: no hop and no trivial crossing
 ENTER integrator.F
 STEP NUMBER                  =          200
 CPU TIME [s]                 =    4.1110927239060402E-002  0.15032254596240802     

 *******************************************************************************
 ENSEMBLE TYPE                =                                              NVE
 STEP NUMBER                  =                                              200
 TIME [fs]                    =                                        20.000000
 CONSERVED QUANTITY [hartree] =                               0.485860667557E+01

                                              INSTANTANEOUS             AVERAGES
 CPU TIME [s]                 =                        0.04                 0.15
 ENERGY DRIFT PER ATOM [K]    =          0.879640489047E-01   0.128180962383E-01
 POTENTIAL ENERGY[hartree]    =          0.272724112569E+01   0.240257226926E+01
 KINETIC ENERGY [hartree]     =          0.213136554988E+01   0.245582012094E+01
 TEMPERATURE [K]              =                     499.096              575.073
 *******************************************************************************


 -------------------------------------------------------------------------------
 -                                                                             -
 -                                DBCSR STATISTICS                             -
 -                                                                             -
 -------------------------------------------------------------------------------
 COUNTER                                    TOTAL       BLAS       SMM       ACC
 flops total                                    0       0.0%      0.0%      0.0%
 flops max/rank                                 0       0.0%      0.0%      0.0%
 matmuls inhomo. stacks                         0       0.0%      0.0%      0.0%
 matmuls total                                  0       0.0%      0.0%      0.0%
 number of processed stacks                     0       0.0%      0.0%      0.0%
 average stack size                                     0.0       0.0       0.0
 marketing flops                     0.000000E+00
 -------------------------------------------------------------------------------

 MEMORY| Estimated peak process memory [MiB]                                 104

 -------------------------------------------------------------------------------
 -                                                                             -
 -                           R E F E R E N C E S                               -
 -                                                                             -
 -------------------------------------------------------------------------------
 
 CP2K version 4.0 (Development Version), the CP2K developers group (2015).
 CP2K is freely available from https://www.cp2k.org/ .

 Borstnik, U; VandeVondele, J; Weber, V; Hutter, J. 
 PARALLEL COMPUTING, 40 (5-6), 47-58 (2014). 
 Sparse matrix multiplication: The distributed block-compressed sparse
 row library.
 http://dx.doi.org/10.1016/j.parco.2014.03.012


 Hutter, J; Iannuzzi, M; Schiffmann, F; VandeVondele, J. 
 WILEY INTERDISCIPLINARY REVIEWS-COMPUTATIONAL MOLECULAR SCIENCE, 4 (1), 15-25 (2014). 
 CP2K: atomistic simulations of condensed matter systems.
 http://dx.doi.org/10.1002/wcms.1159


 Frigo, M; Johnson, SG. 
 PROCEEDINGS OF THE IEEE, 93 (2), 216-231 (2005). 
 The design and implementation of FFTW3.
 http://dx.doi.org/10.1109/JPROC.2004.840301


 -------------------------------------------------------------------------------
 -                                                                             -
 -                                T I M I N G                                  -
 -                                                                             -
 -------------------------------------------------------------------------------
 SUBROUTINE                       CALLS  ASD         SELF TIME        TOTAL TIME
                                MAXIMUM       AVERAGE  MAXIMUM  AVERAGE  MAXIMUM
 CP2K                                 1  1.0    0.009    0.009   38.822   38.822
 qs_mol_dyn_low                       1  2.0    0.271    0.271   30.098   30.098
 velocity_verlet                    200  3.0   20.845   20.845   28.356   28.356
 topology_control                     3  4.0    0.174    0.174    7.992    7.992
 fist_calc_energy_force             406  4.0    0.074    0.074    7.838    7.838
 connectivity_control                 3  5.0    0.006    0.006    7.552    7.552
 read_topology_psf                  150  6.0    3.286    3.286    7.523    7.523
 fist_create_force_env                2  2.0    0.000    0.000    6.752    6.752
 fist_init                            2  3.0    0.001    0.001    6.752    6.752
 force_nonbond                      203  5.0    5.855    5.855    5.855    5.855
 parser_read_line                 12762  7.2    0.259    0.259    4.894    4.894
 parser_read_line_low               171  7.9    4.620    4.620    4.635    4.635
 mixed_create_force_env               1  2.0    0.000    0.000    1.951    1.951
 mixed_init                           1  3.0    0.000    0.000    1.950    1.950
 force_intra_control                406  5.0    1.182    1.182    1.182    1.182
 md_output                          200  3.0    0.001    0.001    1.068    1.068
 md_write_output                    201  4.0    1.021    1.021    1.068    1.068
 -------------------------------------------------------------------------------

 The number of warnings for this run is : 1
 
 -------------------------------------------------------------------------------
  **** **** ******  **  PROGRAM ENDED AT                 2021-04-29 14:24:08.761
 ***** ** ***  *** **   PROGRAM RAN ON                   bulstake.phys.ucl.ac.uk
 **    ****   ******    PROGRAM RAN BY                                 sgiannini
 ***** **    ** ** **   PROGRAM PROCESS ID                                 13003
  **** **  *******  **  PROGRAM STOPPED IN /scratch/sgiannini/REG_TEST_MERGING/3
                                           7-071a0540f1_code_extension_V3_ADJ/ru
                                           n-fssh-NO_REVERSAL
