#     Step Nr.          Time[fs]        Kin.[a.u.]          Temp[K]            Pot.[a.u.]        Cons Qty[a.u.]        UsedTime[s]
         0            0.000000         0.393255336       335.168867385         0.327895703         0.721151039         0.000000000
         1            0.100000         0.393145287       335.075072660         0.328005924         0.721151210         0.016082218
         2            0.200000         0.393076889       335.016777842         0.328074430         0.721151319         0.012704318
         3            0.300000         0.393051753       334.995354640         0.328099615         0.721151368         0.006465904
         4            0.400000         0.393070548       335.011373158         0.328080811         0.721151358         0.020046659
         5            0.500000         0.393133032       335.064627995         0.328018261         0.721151293         0.006465729
         6            0.600000         0.393238099       335.154175952         0.327913078         0.721151176         0.020081742
         7            0.700000         0.393383832       335.278383544         0.327767180         0.721151012         0.007050056
         8            0.800000         0.393567566       335.434978485         0.327583239         0.721150805         0.019783586
         9            0.900000         0.393785954       335.621109295         0.327364606         0.721150560         0.020365892
        10            1.000000         0.394035049       335.833411089         0.327115233         0.721150282         0.006765110
        11            1.100000         0.394310380       336.068073655         0.326839596         0.721149976         0.020530770
        12            1.200000         0.394607037       336.320912925         0.326542611         0.721149648         0.007273722
        13            1.300000         0.394919762       336.587445823         0.326229543         0.721149305         0.020807352
        14            1.400000         0.395243033       336.862968011         0.325905917         0.721148951         0.007880289
        15            1.500000         0.395571164       337.142631891         0.325577428         0.721148592         0.020020612
        16            1.600000         0.395898391       337.421524657         0.325249844         0.721148234         0.007184004
        17            1.700000         0.396218962       337.694745287         0.324928922         0.721147883         0.020575855
        18            1.800000         0.396527229       337.957479083         0.324620315         0.721147544         0.020205313
        19            1.900000         0.396817728       338.205069698         0.324329494         0.721147222         0.006413763
        20            2.000000         0.397085259       338.433084818         0.324061662         0.721146921         0.020053267
        21            2.100000         0.397324959       338.637379672         0.323821686         0.721146645         0.007701525
        22            2.200000         0.397532378       338.814160928         0.323614022         0.721146400         0.020185310
        23            2.300000         0.397703546       338.960046697         0.323442642         0.721146189         0.007196663
        24            2.400000         0.397835055       339.072130653         0.323310962         0.721146017         0.020486202
        25            2.500000         0.397924126       339.148044869         0.323221763         0.721145889         0.007294191
        26            2.600000         0.397968668       339.186008266         0.323177138         0.721145807         0.020084905
        27            2.700000         0.397967310       339.184850412         0.323178459         0.721145769         0.020850822
        28            2.800000         0.397919380       339.144000728         0.323226392         0.721145773         0.007449964
        29            2.900000         0.397824869       339.063449589         0.323320944         0.721145813         0.021525593
        30            3.000000         0.397684375       338.943706744         0.323461515         0.721145890         0.011637038
        31            3.100000         0.397499077       338.785779085         0.323646925         0.721146002         0.011407834
        32            3.200000         0.397270731       338.591161424         0.323875418         0.721146149         0.006885748
        33            3.300000         0.397001663       338.361835884         0.324144669         0.721146331         0.020288205
        34            3.400000         0.396694770       338.100273746         0.324451778         0.721146548         0.021364786
        35            3.500000         0.396353510       337.809420051         0.324793286         0.721146796         0.012622545
        36            3.600000         0.395981863       337.492667232         0.325165211         0.721147073         0.014965490
        37            3.700000         0.395584283       337.153812641         0.325563091         0.721147374         0.018285256
        38            3.800000         0.395165620       336.796989557         0.325982071         0.721147692         0.017362230
        39            3.900000         0.394731015       336.426578207         0.326417003         0.721148017         0.012927694
        40            4.000000         0.394285776       336.047104401         0.326862569         0.721148345         0.017719133
        41            4.100000         0.393835265       335.663136654         0.327313401         0.721148666         0.013283335
        42            4.200000         0.393384768       335.279181497         0.327764203         0.721148972         0.009694390
        43            4.300000         0.392939384       334.899583209         0.328209872         0.721149256         0.019900955
        44            4.400000         0.392503911       334.528432613         0.328645603         0.721149514         0.007025696
        45            4.500000         0.392082760       334.169488469         0.329066979         0.721149739         0.020219794
        46            4.600000         0.391679873       333.826110819         0.329470056         0.721149929         0.006352127
        47            4.700000         0.391298672       333.501215508         0.329851412         0.721150084         0.019927327
        48            4.800000         0.390942037       333.197257838         0.330208168         0.721150205         0.006550964
        49            4.900000         0.390612330       332.916251033         0.330537968         0.721150298         0.020122334
        50            5.000000         0.390311462       332.659822903         0.330838911         0.721150373         0.007138375
        51            5.100000         0.390040988       332.429299675         0.331109451         0.721150439         0.020181848
        52            5.200000         0.389802227       332.225805691         0.331348278         0.721150505         0.006714644
        53            5.300000         0.389596364       332.050350176         0.331554212         0.721150576         0.020203551
        54            5.400000         0.389424500       331.903871208         0.331726151         0.721150651         0.007324917
        55            5.500000         0.389287632       331.787219881         0.331863089         0.721150722         0.020433780
        56            5.600000         0.389186570       331.701085326         0.331964207         0.721150777         0.006665438
        57            5.700000         0.389121800       331.645881942         0.332029006         0.721150806         0.020185504
        58            5.800000         0.389093341       331.621626843         0.332057456         0.721150797         0.020026285
        59            5.900000         0.389100619       331.627830153         0.332050124         0.721150744         0.007115792
        60            6.000000         0.389142375       331.663418055         0.332008267         0.721150642         0.050040737
        61            6.100000         0.389216614       331.726691248         0.331933876         0.721150490         0.006466618
        62            6.200000         0.389320599       331.815316995         0.331829691         0.721150289         0.020415891
        63            6.300000         0.389450877       331.926352142         0.331699168         0.721150044         0.007163653
        64            6.400000         0.389603331       332.056288252         0.331546429         0.721149761         0.020372128
        65            6.500000         0.389773280       332.201134625         0.331376175         0.721149455         0.006762464
        66            6.600000         0.389956504       332.357294811         0.331193202         0.721149706         0.020131828
        67            6.700000         0.390146187       332.518960462         0.331006037         0.721152224         0.019446215
        68            6.800000         0.390335173       332.680032013         0.330816791         0.721151964         0.006814193
        69            6.900000         0.390517995       332.835849719         0.330633577         0.721151572         0.019804940
        70            7.000000         0.390688523       332.981189325         0.330462646         0.721151168         0.006353373
        71            7.100000         0.390840306       333.110553137         0.330310460         0.721150766         0.019649280
        72            7.200000         0.390966917       333.218463051         0.330183454         0.721150371         0.005758896
        73            7.300000         0.391062068       333.299559193         0.330087924         0.721149991         0.006624607
        74            7.400000         0.391119701       333.348679424         0.330029930         0.721149631         0.007591804
        75            7.500000         0.391134081       333.360936010         0.330015214         0.721149295         0.007026551
        76            7.600000         0.391099885       333.331790830         0.330049105         0.721148990         0.005923197
        77            7.700000         0.391012277       333.257123129         0.330136443         0.721148720         0.006759487
        78            7.800000         0.390866984       333.133290641         0.330281505         0.721148489         0.007466270
        79            7.900000         0.390660356       332.957183381         0.330487944         0.721148300         0.007195394
        80            8.000000         0.390389429       332.726274279         0.330758727         0.721148157         0.006527105
        81            8.100000         0.390051972       332.438661489         0.331096090         0.721148062         0.006954595
        82            8.200000         0.389646524       332.093100839         0.331501493         0.721148017         0.006758532
        83            8.300000         0.389172430       331.689033610         0.331975595         0.721148024         0.007520376
        84            8.400000         0.388629856       331.226601971         0.332518227         0.721148083         0.006427800
        85            8.500000         0.388019803       330.706657927         0.333128391         0.721148195         0.007363897
        86            8.600000         0.387344103       330.130763061         0.333804253         0.721148356         0.006966826
        87            8.700000         0.386605407       329.501177641         0.334543161         0.721148568         0.006503448
        88            8.800000         0.385807168       328.820843391         0.335341660         0.721148828         0.006336503
        89            8.900000         0.384953590       328.093344981         0.336195539         0.721149129         0.006911758
        90            9.000000         0.384049551       327.322838573         0.337099908         0.721149459         0.006955469
        91            9.100000         0.383100244       326.513750853         0.338049462         0.721149707         0.020774567
        92            9.200000         0.382128383       325.685440240         0.339016173         0.721144556         0.022220373
        93            9.300000         0.381080321       324.792183669         0.340052980         0.721133300         0.007462103
        94            9.400000         0.380034817       323.901107685         0.341098634         0.721133450         0.019907117
        95            9.500000         0.378974032       322.997007758         0.342159887         0.721133918         0.007508768
        96            9.600000         0.377905190       322.086041450         0.343229237         0.721134427         0.020397831
        97            9.700000         0.376836497       321.175201269         0.344298453         0.721134950         0.007296721
        98            9.800000         0.375776397       320.271685152         0.345359082         0.721135478         0.020283790
        99            9.900000         0.374733416       319.382759582         0.346402590         0.721136006         0.020018293
       100           10.000000         0.373716051       318.515666670         0.347420474         0.721136525         0.007428810
       101           10.100000         0.372732673       317.677540106         0.348404357         0.721137030         0.020704359
       102           10.200000         0.371791428       316.875323218         0.349346088         0.721137516         0.007987762
       103           10.300000         0.370900148       316.115691550         0.350237829         0.721137977         0.015865983
       104           10.400000         0.370066265       315.404978696         0.351072142         0.721138407         0.020986889
       105           10.500000         0.369296726       314.749105272         0.351842077         0.721138803         0.006541247
       106           10.600000         0.368597914       314.153512898         0.352541245         0.721139159         0.020475816
       107           10.700000         0.367975584       313.623105172         0.353163886         0.721139470         0.006052868
       108           10.800000         0.367434792       313.162192009         0.353704943         0.721139735         0.021826817
       109           10.900000         0.366979840       312.774439645         0.354160111         0.721139951         0.006486395
       110           11.000000         0.366614232       312.462833840         0.354525883         0.721140115         0.019878430
       111           11.100000         0.366340634       312.229648497         0.354799590         0.721140224         0.006289970
       112           11.200000         0.366160850       312.076419686         0.354979429         0.721140279         0.019869495
       113           11.300000         0.366075797       312.003929501         0.355064481         0.721140277         0.006471507
       114           11.400000         0.366085499       312.012198651         0.355054721         0.721140220         0.020330200
       115           11.500000         0.366189089       312.100487579         0.354951019         0.721140108         0.006563669
       116           11.600000         0.366384818       312.267305905         0.354755125         0.721139942         0.020378496
       117           11.700000         0.366670077       312.510430492         0.354469647         0.721139724         0.007190172
       118           11.800000         0.367041430       312.826932170         0.354098026         0.721139456         0.019932963
       119           11.900000         0.367494651       313.213209148         0.353644492         0.721139143         0.006931273
       120           12.000000         0.368024773       313.665028485         0.353114014         0.721138787         0.019427605
       121           12.100000         0.368626147       314.177575969         0.352512245         0.721138392         0.006812790
       122           12.200000         0.369292509       314.745511075         0.351845454         0.721137962         0.019309288
       123           12.300000         0.370017039       315.363023732         0.351120463         0.721137503         0.007114284
       124           12.400000         0.370792445       316.023896861         0.350344573         0.721137018         0.018631129
       125           12.500000         0.371611034       316.721574549         0.349525478         0.721136512         0.006712675
       126           12.600000         0.372464794       317.449228653         0.348671198         0.721135992         0.019181805
       127           12.700000         0.373345477       318.199828706         0.347789983         0.721135460         0.006382030
       128           12.800000         0.374244678       318.966211852         0.346890243         0.721134921         0.019854570
       129           12.900000         0.375153910       319.741143848         0.345980472         0.721134382         0.007361026
       130           13.000000         0.376064672       320.517380253         0.345069173         0.721133845         0.019258210
       131           13.100000         0.376968522       321.287725495         0.344164790         0.721133312         0.006470501
       132           13.200000         0.377857131       322.045080883         0.343275655         0.721132786         0.018712847
       133           13.300000         0.378722331       322.782484944         0.342409938         0.721132269         0.006773656
       134           13.400000         0.379556150       323.493143743         0.341575610         0.721131761         0.019482240
       135           13.500000         0.380350838       324.170450473         0.340780423         0.721131261         0.006317019
       136           13.600000         0.381098880       324.808001606         0.340031891         0.721130771         0.019335780
       137           13.700000         0.381793019       325.399612038         0.339337271         0.721130290         0.006340845
       138           13.800000         0.382426297       325.939350052         0.338703529         0.721129826         0.019546468
       139           13.900000         0.382992144       326.421617491         0.338137247         0.721129391         0.006709049
       140           14.000000         0.383484563       326.841303584         0.337644443         0.721129007         0.029425221
       141           14.100000         0.383898438       327.194046119         0.337230273         0.721128711         0.027578047
       142           14.200000         0.384229961       327.476600812         0.336898583         0.721128544         0.007594841
       143           14.300000         0.384477122       327.687254738         0.336651417         0.721128540         0.020486288
       144           14.400000         0.388608142       331.208094619         0.332520571         0.721128712         0.022695411
       145           14.500000         0.388771321       331.347171521         0.332357290         0.721128611         0.007001637
       146           14.600000         0.388911732       331.466843152         0.332216693         0.721128426         0.020884916
       147           14.700000         0.389027980       331.565920283         0.332100247         0.721128227         0.006986450
       148           14.800000         0.389118615       331.643167324         0.332009457         0.721128072         0.022079345
       149           14.900000         0.389182756       331.697834852         0.331945231         0.721127987         0.019722868
       150           15.000000         0.389220447       331.729958696         0.331907536         0.721127983         0.006903049
       151           15.100000         0.389232756       331.740449420         0.331895299         0.721128055         0.019790020
       152           15.200000         0.389221722       331.731045384         0.331906469         0.721128191         0.006740736
       153           15.300000         0.389190222       331.704198002         0.331938157         0.721128379         0.020205885
       154           15.400000         0.389141801       331.662928955         0.331986805         0.721128606         0.007180085
       155           15.500000         0.389080507       331.610688204         0.332048355         0.721128862         0.019820569
       156           15.600000         0.389010735       331.551221978         0.332118399         0.721129134         0.006442908
       157           15.700000         0.388937084       331.488449678         0.332192331         0.721129415         0.027968673
       158           15.800000         0.388864224       331.426352019         0.332265471         0.721129695         0.024682056
       159           15.900000         0.388796781       331.368870541         0.332333187         0.721129968         0.025136746
       160           16.000000         0.388739228       331.319818400         0.332391000         0.721130227         0.006417930
       161           16.100000         0.388695792       331.282798401         0.332434675         0.721130467         0.020226050
       162           16.200000         0.388670368       331.261130172         0.332460313         0.721130682         0.007063752
       163           16.300000         0.388666444       331.257785064         0.332464424         0.721130867         0.020549377
       164           16.400000         0.388687030       331.275330513         0.332443991         0.721131020         0.006809084
       165           16.500000         0.388734611       331.315884108         0.332396525         0.721131137         0.021044530
       166           16.600000         0.388811097       331.381072468         0.332320119         0.721131217         0.005943533
       167           16.700000         0.388917780       331.471997802         0.332213474         0.721131254         0.020223433
       168           16.800000         0.389055313       331.589215817         0.332075938         0.721131251         0.006090432
       169           16.900000         0.389223688       331.732720676         0.331907519         0.721131207         0.020701874
       170           17.000000         0.389422234       331.901939849         0.331708887         0.721131120         0.021997895
       171           17.100000         0.389649615       332.095735184         0.331481378         0.721130993         0.008373071
       172           17.200000         0.389903843       332.312411852         0.331226983         0.721130826         0.020497279
       173           17.300000         0.390182294       332.549734398         0.330948325         0.721130619         0.026567413
       174           17.400000         0.390481737       332.804947217         0.330648639         0.721130375         0.025847519
       175           17.500000         0.390798357       333.074800195         0.330331739         0.721130096         0.030984266
       176           17.600000         0.391127787       333.355571678         0.330001992         0.721129780         0.007724240
       177           17.700000         0.391465125       333.643082327         0.329664301         0.721129426         0.020878095
       178           17.800000         0.391804914       333.932681902         0.329324111         0.721129025         0.007132344
       179           17.900000         0.392141049       334.219167725         0.328987504         0.721128553         0.021707075
       180           18.000000         0.392466484       334.496533586         0.328661466         0.721127950         0.020747900
       181           18.100000         0.392772452       334.757308461         0.328354614         0.721127066         0.008839445
       182           18.200000         0.393046801       334.991134348         0.328078866         0.721125667         0.021868188
       183           18.300000         0.393273046       335.183961527         0.327851131         0.721124178         0.021178037
       184           18.400000         0.393847101       335.673224255         0.327277501         0.721124601         0.024580650
       185           18.500000         0.393996877       335.800877647         0.327125292         0.721122169         0.009340517
       186           18.600000         0.394135407       335.918945261         0.326985291         0.721120697         0.020703075
       187           18.700000         0.394242231       336.009990858         0.326877687         0.721119918         0.007868804
       188           18.800000         0.394305675       336.064064304         0.326813768         0.721119444         0.021246092
       189           18.900000         0.394318548       336.075035565         0.326800568         0.721119116         0.020292778
       190           19.000000         0.394275855       336.038648421         0.326843021         0.721118876         0.009742260
       191           19.100000         0.394173929       335.951777779         0.326944772         0.721118701         0.020615650
       192           19.200000         0.394010109       335.812154968         0.327108475         0.721118584         0.021774603
       193           19.300000         0.393782616       335.618264294         0.327335904         0.721118520         0.008674690
       194           19.400000         0.393490509       335.369303694         0.327627999         0.721118509         0.023324836
       195           19.500000         0.393133671       335.065173225         0.327984877         0.721118549         0.027344018
       196           19.600000         0.392712805       334.706471865         0.328405835         0.721118640         0.027069546
       197           19.700000         0.392229424       334.294489436         0.328889357         0.721118782         0.020187115
       198           19.800000         0.391685838       333.831194410         0.329433134         0.721118972         0.030052142
       199           19.900000         0.391085137       333.319221118         0.330034072         0.721119209         0.008746529
       200           20.000000         0.390431164       332.761844216         0.330688328         0.721119491         0.020306882
