 # Version information for this restart file 
 # current date 2021-02-12 16:44:33.848
 # current working dir /scratch/sgiannini/FOB-SH-REGTESTS_/33-XXX_code_extension_V2/run-fssh-3NAP-3ANT-NFF
 # Program compiled at                              Fri 12 Feb 16:41:38 GMT 2021
 # Program compiled on                                   bulstake.phys.ucl.ac.uk
 # Program compiled for                                                    local
 # Source code revision number                                       git:cfe3005
 &GLOBAL
   BLACS_GRID  SQUARE
   PREFERRED_FFT_LIBRARY  FFTW3
   PRINT_LEVEL  LOW
   PROGRAM_NAME  CP2K
   PROJECT_NAME run
   RUN_TYPE  MD
 &END GLOBAL
 &MOTION
   &MD
     ENSEMBLE  NVE
     STEPS  200
     TIMESTEP     9.9999999999999992E-02
     STEP_START_VAL  200
     TIME_START_VAL     2.0000000000000071E+01
     ECONS_START_VAL     7.2882936589789926E-01
     TEMPERATURE     3.0000000000000000E+02
     &THERMOSTAT
       REGION  GLOBAL
       &NOSE
         LENGTH  3
         YOSHIDA  3
         TIMECON     9.9999999999999989E+02
         MTS  2
       &END NOSE
     &END THERMOSTAT
     &AVERAGES  T
       &RESTART_AVERAGES
         ITIMES_START  1
         AVECPU     2.0648957812227305E-02
         AVEHUGONIOT     0.0000000000000000E+00
         AVETEMP_BARO     0.0000000000000000E+00
         AVEPOT     3.4361605358508229E-01
         AVEKIN     3.8521057048548585E-01
         AVETEMP     3.2831236778285120E+02
         AVEKIN_QM     0.0000000000000000E+00
         AVETEMP_QM     0.0000000000000000E+00
         AVEVOL     1.4576402699474397E+06
         AVECELL_A     1.1338356797313864E+02
         AVECELL_B     1.1338356797313864E+02
         AVECELL_C     1.1338356797313864E+02
         AVEALPHA     9.0000000000000043E+01
         AVEBETA     9.0000000000000043E+01
         AVEGAMMA     9.0000000000000043E+01
         AVE_ECONS    -3.4911963317804931E-03
         AVE_PRESS     0.0000000000000000E+00
         AVE_PXX     0.0000000000000000E+00
       &END RESTART_AVERAGES
     &END AVERAGES
     &PRINT
       &PROGRAM_RUN_INFO  LOW
       &END PROGRAM_RUN_INFO
     &END PRINT
   &END MD
   &CONSTRAINT
     &COLLECTIVE
       COLVAR  1
       INTERMOLECULAR  T
       TARGET     0.0000000000000000E+00
       &RESTRAINT
         K     5.0000000000000001E-03
       &END RESTRAINT
     &END COLLECTIVE
     &COLLECTIVE
       COLVAR  2
       INTERMOLECULAR  T
       TARGET     0.0000000000000000E+00
       &RESTRAINT
         K     5.0000000000000001E-03
       &END RESTRAINT
     &END COLLECTIVE
     &COLLECTIVE
       COLVAR  3
       INTERMOLECULAR  T
       TARGET     0.0000000000000000E+00
       &RESTRAINT
         K     5.0000000000000001E-03
       &END RESTRAINT
     &END COLLECTIVE
     &COLLECTIVE
       COLVAR  4
       INTERMOLECULAR  T
       TARGET     0.0000000000000000E+00
       &RESTRAINT
         K     5.0000000000000001E-03
       &END RESTRAINT
     &END COLLECTIVE
     &COLLECTIVE
       COLVAR  5
       INTERMOLECULAR  T
       TARGET     0.0000000000000000E+00
       &RESTRAINT
         K     5.0000000000000001E-03
       &END RESTRAINT
     &END COLLECTIVE
     &COLLECTIVE
       COLVAR  6
       INTERMOLECULAR  T
       TARGET     0.0000000000000000E+00
       &RESTRAINT
         K     5.0000000000000001E-03
       &END RESTRAINT
     &END COLLECTIVE
     &COLLECTIVE
       COLVAR  7
       INTERMOLECULAR  T
       TARGET     0.0000000000000000E+00
       &RESTRAINT
         K     5.0000000000000001E-03
       &END RESTRAINT
     &END COLLECTIVE
     &COLLECTIVE
       COLVAR  8
       INTERMOLECULAR  T
       TARGET     0.0000000000000000E+00
       &RESTRAINT
         K     5.0000000000000001E-03
       &END RESTRAINT
     &END COLLECTIVE
     &COLLECTIVE
       COLVAR  9
       INTERMOLECULAR  T
       TARGET     0.0000000000000000E+00
       &RESTRAINT
         K     5.0000000000000001E-03
       &END RESTRAINT
     &END COLLECTIVE
     &COLLECTIVE
       COLVAR  10
       INTERMOLECULAR  T
       TARGET     0.0000000000000000E+00
       &RESTRAINT
         K     5.0000000000000001E-03
       &END RESTRAINT
     &END COLLECTIVE
     &COLLECTIVE
       COLVAR  11
       INTERMOLECULAR  T
       TARGET     0.0000000000000000E+00
       &RESTRAINT
         K     5.0000000000000001E-03
       &END RESTRAINT
     &END COLLECTIVE
     &COLLECTIVE
       COLVAR  12
       INTERMOLECULAR  T
       TARGET     0.0000000000000000E+00
       &RESTRAINT
         K     5.0000000000000001E-03
       &END RESTRAINT
     &END COLLECTIVE
     &COLVAR_RESTART
           0.0000000000000000E+00
           0.0000000000000000E+00
           0.0000000000000000E+00
           0.0000000000000000E+00
           0.0000000000000000E+00
           0.0000000000000000E+00
           0.0000000000000000E+00
           0.0000000000000000E+00
           0.0000000000000000E+00
           0.0000000000000000E+00
           0.0000000000000000E+00
           0.0000000000000000E+00
     &END COLVAR_RESTART
   &END CONSTRAINT
   &PRINT
     &TRAJECTORY  LOW
       FORMAT  XMOL
       &EACH
         MD  200
       &END EACH
     &END TRAJECTORY
     &MIXED_ENERGIES  OFF
     &END MIXED_ENERGIES
     &RESTART  ON
       &EACH
         MD  200
       &END EACH
     &END RESTART
     &RESTART_HISTORY  OFF
     &END RESTART_HISTORY
   &END PRINT
 &END MOTION
 &MULTIPLE_FORCE_EVALS
   FORCE_EVAL_ORDER  1..10
   MULTIPLE_SUBSYS  T
 &END MULTIPLE_FORCE_EVALS
 &FORCE_EVAL
   METHOD  MIXED
   &MIXED
     MIXING_TYPE  ADIABATIC
     &ADIABATIC
       METHOD_PROPAGATION FSSH
       PRINT_MORE  T
       INITIALIZATION DIABATIC
       REPRESENTATION DIABATIC_BASIS
       ELECTRONIC_PARTIAL_STEP  5
       FIRST_DIABAT  1
       FIRST_ADIABAT  1
       SEED  641704875
       NUMBER_DIABATIC_STATES  9
       NUMBER_ORBITALS  1
       NUCLEAR_TIMESTEP     9.9999999999999992E-02
       CENTER_OF_MASS  T
       INDEX_ACTIVE_MOLS  1..6
       METHOD_COUPLING FROZEN_COUPLINGS
       &OPTIMIZATION
         DO_SPEEDUP_LJ  F
         DO_SPEEDUP_INTRA  F
         SURF_HOP_CHOICE TRIVIAL_HOP_CORRECT
         RK_PROPAGATION DIABATIC_RK_FAST
         REORDERING_STATES_USING_OVERLAP  T
       &END OPTIMIZATION
       &DECOHERENCE
         DECOHERENCE_CORRECTIONS DAMPING
         DECO_TIME EDC
         SPURIOUS_TRANSFER_CORR  T
         EDC_C     1.0000000000000000E+00
         EDC_E0     0.0000000000000000E+00
         THRESHOLD_TAU_FORCES     9.9999999999999995E-21
         TEMPERATURE_FG_WIDTH     3.0000000000000000E+02
         DECOHERENCE_CRITERION     9.9999999999999995E-07
       &END DECOHERENCE
       &ENERGY_CONSERVATION
         METHOD_RESCALING NACV
         METHOD_ADIABATIC_NACV FAST
         METHOD_REVERSAL ALWAYS
       &END ENERGY_CONSERVATION
       &METHOD_SITE_ENERGIES
         MULTI_STATES  T
       &END METHOD_SITE_ENERGIES
       &FROZEN_COUPLINGS
1   1   0.0
1   2   0.001469972
1   4   0.000734986
2   2   0.0
2   3   0.001469972
2   5   0.000734986
3   3   0.0
3   6   0.000734986
4   4   0.0
4   5   0.001469972
4   7   0.000734986
5   5   0.0
5   6   0.001469972
5   8   0.000734986
6   6   0.0
6   9   0.000734986
7   7   0.0
7   8   0.001469972
8   8   0.0
8   9   0.001469972
9   9   0.0
         CONNECTIVITY_FRZ_C  T
         INTERACTION_NUMBER  21
       &END FROZEN_COUPLINGS
       &PRINT
         &COEFFICIENTS  LOW
           &EACH
             MD  1
           &END EACH
         &END COEFFICIENTS
         &POPULATIONS  LOW
           &EACH
             MD  1
           &END EACH
         &END POPULATIONS
         &ADIAB_POPULATIONS  LOW
           &EACH
             MD  1
           &END EACH
         &END ADIAB_POPULATIONS
         &ADIABAT_ENERGIES  SILENT
           &EACH
             MD  1
           &END EACH
         &END ADIABAT_ENERGIES
         &SITE_ENERGIES  SILENT
           &EACH
             MD  1
           &END EACH
         &END SITE_ENERGIES
         &OFF_DIAGONALS  SILENT
           &EACH
             MD  1
           &END EACH
         &END OFF_DIAGONALS
         &PSEUDO_HAMILTONIAN  SILENT
           UNIT hartree
           &EACH
             MD  1
           &END EACH
         &END PSEUDO_HAMILTONIAN
         &SH_INFO  SILENT
           &EACH
             MD  1
           &END EACH
         &END SH_INFO
       &END PRINT
     &END ADIABATIC
     &PRINT
       &PROGRAM_RUN_INFO  OFF
         &EACH
           MD  200
         &END EACH
       &END PROGRAM_RUN_INFO
     &END PRINT
   &END MIXED
   &SUBSYS
     &CELL
       A     6.0000000000000007E+01    0.0000000000000000E+00    0.0000000000000000E+00
       B     0.0000000000000000E+00    6.0000000000000007E+01    0.0000000000000000E+00
       C     0.0000000000000000E+00    0.0000000000000000E+00    6.0000000000000007E+01
       PERIODIC  XYZ
       MULTIPLE_UNIT_CELL  1 1 1
     &END CELL
     &COORD
CK   -3.5261721370191157E-01    5.3709949114466382E-01    2.5994274851468129E+00
CM   -1.0088367728833421E+00    9.0050901885709889E-01    1.4119337227237587E+00
CT   -4.8104604755981473E-01    4.6501957954091921E-01    1.1928895309397186E-01
CM   -8.9145271537144244E-01    9.8848988745358424E-01   -1.1627015258521218E+00
CK    5.9863357798460359E-01   -4.5618122478930823E-01    2.5227145621105489E+00
HA   -5.8030128896589661E-01    9.3878678336880317E-01    3.5752825327755260E+00
HA   -1.8078733058413825E+00    1.6469903074302492E+00    1.3226462696197669E+00
HA   -1.5373553139731675E+00    1.8476198464304081E+00   -1.1586068368050737E+00
HA    1.1536748207976097E+00   -8.4889108821552528E-01    3.4324063305708701E+00
CT    6.0185711014577958E-01   -5.1699429723326018E-01    1.2451164734922583E-01
CK   -4.2822575865530804E-01    3.7555401256323107E-01   -2.3672094179619338E+00
CM    1.1024801746973119E+00   -1.0046951443850554E+00    1.2854136929851971E+00
CM    1.0898508497991903E+00   -1.0653601114397444E+00   -1.0945246657271106E+00
CK    6.5736641660368811E-01   -5.2455996396383064E-01   -2.3819893573498780E+00
HA   -9.1205940968720245E-01    7.4372392880326843E-01   -3.2941214220474002E+00
HA    1.8449949904906100E+00   -1.8021035358228987E+00    1.1521855509377026E+00
HA    1.9321397883248386E+00   -1.6789619428952856E+00   -1.1310145004842240E+00
HA    1.0354940920450946E+00   -8.3860371615162976E-01   -3.3014793411574903E+00
CT    5.0251909943708730E+00   -8.5451375236186200E-01    2.3549958208881878E+00
CT    5.0541655985162803E+00   -1.5442125595776788E+00    1.1373324721805789E+00
CT    5.0894317088806664E+00   -7.7591832393004301E-01   -3.8013653148723320E-02
CT    4.8939309683159964E+00   -1.3998422000115760E+00   -1.2926473695539795E+00
CT    5.1242669474780405E+00    5.4639970807870530E-01    2.4418373502226025E+00
HA    4.8712030126402306E+00   -1.4200673237135295E+00    3.3154525768006287E+00
HA    4.9115566117307026E+00   -2.5672330892316104E+00    1.0836029129223899E+00
HA    4.5895154269154270E+00   -2.5141272626070075E+00   -1.3067101400856231E+00
HA    5.2782831676763031E+00    1.1747708398066352E+00    3.3191450038894499E+00
CT    5.2904792678927688E+00    6.0159314772709027E-01    4.5447854279879789E-02
CT    5.0156699957692865E+00   -5.8591592107702184E-01   -2.4783021719702658E+00
CT    5.4584978384156031E+00    1.2817810780515970E+00    1.2903112012466293E+00
CT    5.4869672589803518E+00    1.2808745237687762E+00   -1.1149584617799824E+00
CT    5.4449402009272188E+00    6.9640479522963217E-01   -2.4061173565076617E+00
HA    4.8052888482368399E+00   -9.3054299719464673E-01   -3.5050675645602682E+00
HA    5.6644411950844633E+00    2.3877299177515412E+00    1.3236440359321882E+00
HA    5.8934976859848520E+00    2.3229235794692547E+00   -1.0468790234980465E+00
HA    5.5581426745396056E+00    1.2990613986695532E+00   -3.3835202695910325E+00
CT    1.0245394014626720E+01   -8.2080455888905368E-01    2.4423442880015491E+00
CT    1.0500161032410709E+01   -1.4350960871367542E+00    1.1962490137195001E+00
CT    1.0237161957483851E+01   -6.3850652989787215E-01    4.9726003861143828E-02
CT    1.0613806084105740E+01   -1.1704457880725117E+00   -1.2490294299351845E+00
CT    9.5362184761848976E+00    4.0490222619246441E-01    2.4709038043769702E+00
HA    1.0401988125461161E+01   -1.3965384030253802E+00    3.3647407116086012E+00
HA    1.1029841284817811E+01   -2.4177318198036679E+00    1.1840110197928986E+00
HA    1.1085812502405089E+01   -2.1092480100082387E+00   -1.3933988267442226E+00
HA    9.0434391434673991E+00    7.0626213678601857E-01    3.3930945375387935E+00
CT    9.6726251929596891E+00    5.9762629709895032E-01    1.0924788083227510E-01
CT    1.0250613582470860E+01   -5.2949332816015093E-01   -2.4505906910035007E+00
CT    9.2484879178250186E+00    1.1529516660549888E+00    1.2775615166648724E+00
CT    9.3929730065359678E+00    1.2775966976644115E+00   -1.0713348863272043E+00
CT    9.6915492316774206E+00    7.5289282023343751E-01   -2.3538135542577905E+00
HA    1.0216723088253326E+01   -1.1417975932922937E+00   -3.3543569026591102E+00
HA    8.6764989495706804E+00    2.0162430845775980E+00    1.3125715303640135E+00
HA    8.9658114883906546E+00    2.2984502320854245E+00   -9.2977890627733328E-01
HA    9.5748282199715238E+00    1.3962177520427514E+00   -3.2151234902715249E+00
CC    1.5798620241456225E+01   -5.1176665823116185E-01    3.4889662669034172E+00
CB    1.6379737583603514E+01   -7.8621137775344319E-01    2.2598582936387954E+00
CP    1.5726381314877173E+01   -4.3342335451222108E-01    1.0477689056535724E+00
CA    1.6310333521900219E+01   -8.2379393326355621E-01   -1.9853788781505205E-01
CP    1.4403952139583769E+01    1.2826497989290420E-01    1.1140787325406063E+00
CB    1.3850772315756792E+01    3.9561753838024810E-01    2.4023611878295155E+00
CC    1.4539143730716816E+01    4.9161790411167826E-02    3.5783630304191010E+00
H    1.6259259949433993E+01   -9.0711312119492815E-01    4.3959551345265542E+00
H    1.7260009123828500E+01   -1.5126098843971347E+00    2.2420336962808589E+00
H    1.7261457382419980E+01   -1.2713338731101951E+00   -2.6298341906350431E-01
H    1.2918767498338894E+01    9.6736625554143418E-01    2.4349760239142531E+00
H    1.4167545622708067E+01    2.6433234908322412E-01    4.5622104751551094E+00
CP    1.5620886203860289E+01   -5.5068179247690086E-01   -1.4324803035131191E+00
CA    1.3789208281439926E+01    4.7819486994873528E-01   -1.2750905244997199E-01
CP    1.4398849330619919E+01    2.3688860149525751E-01   -1.3808142644187131E+00
CB    1.6115332343946182E+01   -9.2575073848949663E-01   -2.6543669692816021E+00
H    1.2808503687490212E+01    8.7926852808281641E-01   -9.0939818201776615E-02
CB    1.3736342721926771E+01    5.9956457809408559E-01   -2.5795519380981085E+00
CC    1.5391401388418755E+01   -5.6286592139342262E-01   -3.8495451781461503E+00
H    1.7064798732973987E+01   -1.4442964397130313E+00   -2.7313876632760770E+00
CC    1.4205228100933036E+01    1.2019421556904754E-01   -3.8444523058637539E+00
H    1.2689961264816398E+01    9.3725777668587584E-01   -2.4954628239526060E+00
H    1.5780961401326815E+01   -8.8466594402424714E-01   -4.7952952406892440E+00
H    1.3617064959811339E+01    1.9670544442084217E-01   -4.7620698845293497E+00
CA    2.0167005548479700E+01   -5.7971849898538841E-01    3.6453607939331110E+00
CA    2.0661435563005675E+01   -1.2363778669987031E+00    2.4804522240637410E+00
CA    2.0342765806677118E+01   -6.6048422153464414E-01    1.2141913273257539E+00
CA    2.0750224538512708E+01   -1.3431557083510051E+00    5.8549900502798798E-02
CA    1.9601248212290923E+01    5.1053601865997011E-01    1.1134626421346538E+00
CA    1.9305331124828008E+01    1.2464234273516259E+00    2.3114958754737005E+00
CA    1.9520644334457575E+01    6.6452061469598178E-01    3.5942170172022960E+00
H    2.0342412180800657E+01   -1.0436463492838082E+00    4.6660579770421888E+00
H    2.1191678501362137E+01   -2.1981992781329569E+00    2.6051667931013736E+00
H    2.1402740711414779E+01   -2.1903255495639646E+00    8.3822022995727108E-02
H    1.8775871543373814E+01    2.2024396244594979E+00    2.3301156624676143E+00
H    1.9241153478839525E+01    1.1926249885249744E+00    4.4866272129908209E+00
CA    2.0421021802981272E+01   -7.9744522899529924E-01   -1.2101324130257853E+00
CA    1.9467578479996025E+01    1.2091825053496554E+00   -1.2580684383380025E-01
CA    1.9857050663307668E+01    4.9967471326139373E-01   -1.3036249371626127E+00
CA    2.0733278522132572E+01   -1.5206081794641684E+00   -2.4147567793175742E+00
H    1.8893587563262557E+01    2.0903265679382086E+00   -1.5799378997088712E-01
CA    1.9586306458490021E+01    1.1048713977373379E+00   -2.5419410070489712E+00
CA    2.0525194668404616E+01   -8.6068430235655613E-01   -3.6852301729208801E+00
H    2.1163498597075936E+01   -2.5392499418646008E+00   -2.4852940945889221E+00
CA    1.9824288473754816E+01    3.8319079909742054E-01   -3.7104678569227949E+00
H    1.9000688068396965E+01    1.9831102299798171E+00   -2.4440463316800596E+00
H    2.0777240177879502E+01   -1.3205373212959477E+00   -4.6132693221459773E+00
H    1.9664212246527317E+01    8.6338950141463422E-01   -4.6424769604303551E+00
CA    2.5173282275269560E+01   -6.8392300353993440E-01    3.8632027449245956E+00
CA    2.5702875474690899E+01   -1.1282158665341289E+00    2.6518182507279437E+00
CA    2.5277270393093165E+01   -6.9762839744762084E-01    1.3876615089642057E+00
CA    2.5805048549973090E+01   -1.2455699743342625E+00    2.2809467825787075E-01
CA    2.4280514459722315E+01    2.9872697422057209E-01    1.2833532978770066E+00
CA    2.3765615678391519E+01    7.7754132169993251E-01    2.4798615182656887E+00
CA    2.4155853625802344E+01    2.5666435957921646E-01    3.7437005263812835E+00
H    2.5574099048949080E+01   -1.0899607532801074E+00    4.7925442869500294E+00
H    2.6493887268193873E+01   -1.7936228244266630E+00    2.7320319004653930E+00
H    2.6533135140892252E+01   -2.1173998904340556E+00    3.2893492295670917E-01
H    2.2884502245614424E+01    1.4511664670886348E+00    2.5018979291974794E+00
H    2.3784793296481030E+01    6.9133941816883504E-01    4.7113052111285585E+00
CA    2.5362070143517055E+01   -8.0602010702844740E-01   -1.0674833710616736E+00
CA    2.3872599328863139E+01    8.4199015304340241E-01    2.2920251876216078E-02
CA    2.4460877131177199E+01    3.5216464571940403E-01   -1.1627937219420874E+00
CA    2.5852307102425055E+01   -1.3571142365244850E+00   -2.2891004546809497E+00
H    2.3241422244662953E+01    1.7140437759291327E+00   -8.5815682526539955E-02
CA    2.4045471234284470E+01    8.4692576698388833E-01   -2.3981801219215648E+00
CA    2.5425115372788088E+01   -7.4371783303032735E-01   -3.5123492110045320E+00
H    2.6447877959811052E+01   -2.2219561322752837E+00   -2.1707125937928189E+00
CA    2.4524065709087083E+01    3.0048256600557410E-01   -3.5922337550788468E+00
H    2.3466671145980282E+01    1.7073537706901161E+00   -2.4407329183404212E+00
H    2.5830346582814201E+01   -1.0911285903981573E+00   -4.4774390699689031E+00
H    2.4203334714507601E+01    7.1603508550141692E-01   -4.5569744367344027E+00
Ne   -2.8961294290102369E+01   -3.1783287358932125E+02   -1.6937103359095670E+02
Ne   -2.9946113547328667E+02    1.6186052478531224E+02   -5.7618206654376102E+01
Ne   -2.5423325596734171E+02   -2.1640060425274137E+02   -1.6699031120352544E+01
Ne   -3.7238126447412486E+02   -1.0547809027615848E+02   -6.2453348075681554E+01
Ne    2.5586206143659260E+02   -2.4750778317118318E+02   -4.1120130894273970E+01
Ne   -9.2273388845009549E+01    1.7932273659562956E+00   -2.7267247861158648E+02
Ne   -4.3961180334982657E+02    3.2897425472440904E+02   -4.2396409564887205E+02
Ne   -2.8317317865037062E+01   -1.5387162569564958E+02   -1.5980482435058073E+02
Ne    1.7490986592094006E+02    2.8657470987709829E+01    2.9225152721983221E+02
Ne   -1.6294470141786800E+02    1.4263439739027157E+02   -4.5176091766484632E+01
Ne   -4.1312890676081963E+02    6.5426849809091493E+01    2.8138160894247312E+02
Ne   -8.5483759018476917E+00   -2.2964217158864645E+02   -1.4906380556294769E+02
Ne    1.4237646237244351E+02   -5.5200029809484661E+01    2.0922927397569609E+02
Ne    1.0766919345899251E+02   -2.4616307440960983E+02    8.9409330969876535E+01
Ne    4.4849623378399812E+01    1.9008133447315294E+02    1.6653046461195598E+02
Ne   -2.0238948982112831E+02   -9.9697767867268041E+01   -2.6076808846132656E+02
Ne   -1.8698368088340729E+02    2.1644628003477024E+02    1.8927301064710744E+02
Ne    7.9388487313775116E+00    3.0831042618896571E+00   -1.4829503099899409E+02
Ne   -3.3041076194166101E+02   -1.2291162752294154E+02    8.7071899115980145E+00
Ne   -8.8203127092898015E+01   -2.8345485535828676E+01    5.5130647655218006E+01
Ne    3.3777451404076135E+02    2.5527873770816174E+02    2.8068605899750264E+02
Ne    4.7515962013861360E+02    4.5757780259648804E+01    2.7308713763532427E+02
Ne   -3.5355534531908023E+02   -2.0345534756442481E+02   -1.3847375987912221E+02
Ne   -9.6101558047014763E+01    1.7958039732679495E+01    1.3330608642060847E+02
Ne   -3.8887614205822626E+02    2.5302669347614878E+02    3.8748804709926731E+01
Ne   -2.0736627709815252E+02   -2.4167176856695957E+02   -3.4830220914877501E+01
Ne   -1.1350801916118119E+01   -1.3906114383902403E+02    2.5454342886139781E+01
Ne   -2.2072996067892103E+02   -2.4916140652703721E+01    2.0866558569301941E+02
Ne    2.7280583053297056E+02   -1.1072845184230935E+02    9.1694042902251169E+01
Ne    4.6453450435565507E+01   -9.9141209578418582E+01   -2.1713163548319008E+02
Ne   -2.5542008625613167E+02   -3.4869233448214345E+02   -9.2957558026970105E+01
Ne    6.1680214564673683E+01   -3.4915243357321731E+02    1.2830398013991251E+02
Ne   -2.1514957326467629E+02    4.6123633978210833E+01    3.1907243810958272E+02
Ne    4.9257952535997397E+01   -1.6424899068515504E+02   -4.9105522805811393E+02
Ne   -9.5078800825731221E+01   -1.4617038810376517E+01   -1.3922509548751003E+02
Ne   -3.7548151124610666E+02    1.3101213917916547E+02    5.4429441030960038E+02
Ne   -1.3093517963494594E+02   -1.8805824097842651E+02    6.2719261877622723E-01
Ne    2.3283699547763851E+02   -2.7233886549599089E+02   -3.6463643998178907E+02
Ne   -2.4886772301538070E+02   -8.5460243534101039E+01   -1.6200357837983105E+02
Ne    4.6725193805752480E+02    3.4584201733846487E+02    1.1774875262712644E+02
Ne   -2.8119888966471905E+01    5.0669747610039494E+01    1.9803566843892628E+02
Ne   -1.9425772330784457E+02   -7.6171295768963873E+01   -7.1098619198076179E+01
Ne   -1.1810459739233872E+02   -2.7825069900755346E+02   -2.9271797978837685E+02
Ne   -4.4002800306514040E+01   -1.5661319154835041E+02    2.4387641963849160E+02
Ne    4.9743126229353925E+02    2.3537290364263345E+01    1.8975596266921124E+02
Ne   -2.6304793196412282E+02    2.2473674911609859E+02    1.0827097920274329E+02
Ne   -3.9808606017837701E+02   -1.1870083672370919E+02    3.8817859241351994E+02
Ne    4.5901453979056032E+02    4.3806288155772694E+02   -1.6962278493801944E+02
Ne   -6.8718174982024422E+01   -1.9135752253722947E+02    4.3141498563955486E+02
Ne    6.0311137848799626E+02    1.4916724265492013E+02    2.5799038884450874E+02
Ne   -8.5282727590796696E+01   -1.0662684214771431E+02   -3.1004517692970410E+02
Ne    1.3753070738488697E+02    2.4622960035717909E+02   -2.3017220846182735E+02
Ne    1.1529626036912883E+02   -2.1451331041156831E+02    2.3675240203180851E+02
Ne   -6.2508882663256236E+02    4.0812338808632819E+02   -6.0698791785918513E+02
Ne   -3.0352555652757928E+01    5.2682617421594848E+01   -8.2973363212835608E+01
Ne   -1.9764793617481408E+02   -1.8005560193605856E+01   -3.9776211521694313E+02
Ne    9.9980998463581287E+01    8.7918584819766735E+01   -1.3563437083562272E+02
Ne    4.4479492422856502E+01   -2.7314643022816153E+01   -2.7026833370798039E+02
Ne   -3.8833257495838438E+02    1.4237857841644703E+02   -5.4498968100600780E+02
Ne    1.6868134881810934E+02    1.4042578524621308E+02   -9.5217627253871754E+01
Ne    1.3041771969905608E+02   -2.3437326607402355E+02   -1.3011343366066401E+02
Ne    1.3162330595051966E+02    5.1599029340257255E+02    4.3843715212864561E+02
Ne   -8.4196963356756001E+01    8.9511859792804060E+01   -1.3330087649161197E+02
Ne    9.9886810665435021E+01   -2.4576718287676067E+02   -5.2296287891015453E+01
Ne    3.6742534610517004E+02    4.9567456717269216E+01   -4.0726703184622909E+02
Ne   -1.8512712058986452E+02    5.0321137850639005E+01   -1.5532809176352995E+01
Ne    1.6757141319970714E+01   -3.2383828443839758E+02    1.0359590296268555E+01
Ne   -1.4809354370442188E+02   -5.4049024981910485E+01    4.5422052939161262E+01
Ne   -2.1258086368110508E+01    1.1150189485515382E+02   -3.0598303096377344E+02
Ne    2.7469902607955611E+01    1.2206475057218520E+02    4.8213399754418020E+01
Ne    9.0080233673337105E+01   -1.7745577462455071E+02   -7.9309647015813184E+01
Ne   -1.9114481889376080E+02   -1.5678427419038249E+02    3.1523142738454351E+02
Ne   -5.3088739926254118E+02    4.3566055525431250E+02    1.0333915702478969E+02
Ne    3.3849906833097879E+02    2.0788476598595065E+02    4.0833785518296551E+01
Ne   -2.2947003396792536E+02   -2.8869295281241637E+01   -5.0345910407767413E+01
Ne   -1.2346460177536362E+02    5.0415459949966635E+02   -4.0617552033838786E+02
Ne   -9.8322219486513475E+01   -6.4091895910171260E+01   -3.5555812085055756E+01
Ne   -1.6070353153907149E+02   -2.2648032312742365E+02   -3.8892134924857589E+02
Ne   -6.2707491655558535E+01   -1.0994691841915652E+02   -1.9505146974614783E+02
Ne   -2.2358152864928354E+02    1.6636752380436550E+02   -1.1235307420720996E+02
Ne   -1.3226728435975633E+02    4.7373466837522579E+02   -2.3694277198776248E+02
Ne    1.6355796112728598E+02    1.9324155468267952E+02    3.7844649645615425E+02
Ne   -1.5300034528322399E+02    1.5814037133222880E+02    1.4055863011866525E+00
Ne    1.1514791413971279E+01    1.8936448402634198E+02    5.7601633016560743E+02
Ne    2.5449803163249111E+01    3.4090284330514542E+01   -4.9835332516591188E+02
Ne    1.3154527917026516E+02   -4.1150377038204752E+01   -1.6127715746202782E+02
Ne   -2.1672335196145745E+01    2.0270760155326096E+02   -1.1646406809577476E+01
Ne   -5.5820736002324679E+01    1.7136440096487087E+02   -1.7796853028590513E+02
Ne    5.8692165927070072E+01    7.2780127081023835E+01    9.6980845891745687E+01
Ne    1.4791052117101592E+02    1.1681423195790889E+02    5.5112070800744732E+02
Ne    3.6463757220376232E+02    2.4860121629231281E+02   -1.6680808786071759E+02
Ne    1.9880351766373488E+02    9.1718752795487415E+00    9.3833935003093401E+01
Ne   -2.3265539276682478E+02    2.1544109859741769E+02   -3.4894535984637616E+02
Ne   -3.3782620198582322E+01   -2.4710195231301256E+01    3.0694440883645370E+01
Ne   -2.1328625741254638E+02   -2.6110524740723429E+02    1.5886384784896234E+02
Ne    4.9373139609513748E+02   -4.4356921642299568E+01    2.0670663588853100E+02
Ne   -1.7728146459429539E+02    2.2934658998570558E+02   -3.5524404752259488E+02
Ne    5.9160172973011655E+01   -4.5530348521856695E+01   -4.5537021362762596E+02
Ne    2.7409918700022327E+01    2.2598166549486348E+02    2.9850203008490933E+01
Ne   -7.3571452056956034E+01   -5.1282147781916628E+01    2.0369673818355128E+02
Ne   -1.8596612513551150E+02    2.5320966365673087E+02    2.1111032133750294E+02
Ne    2.0116499911029013E+02    9.9368794356050927E+01   -3.6124510853310554E+01
Ne    2.1767520785663217E+02    1.3047586714815472E+02   -1.6411437113370124E+02
Ne   -1.8392425431656989E+02   -1.7224168733253424E+02   -3.2717678959775554E+02
Ne   -2.0547584158649119E+01    1.4507050629278848E+02    1.5634226737802885E+02
Ne   -3.3672258256997577E+02    1.0572757465205036E+02   -1.8867017256607042E+02
Ne    2.7984245222238656E+02    1.0025352163894078E+02   -7.8240493376290857E+01
Ne   -4.3727901610145256E+02   -8.7564858899374798E+00   -6.7852903822603537E+01
Ne    2.3340203685212469E+01    1.9314645108864286E+02   -2.3189613311348913E+02
Ne    6.4919246846696592E+02    8.9605881672455709E+01    1.7098039098256574E+01
Ne    2.5773696700661640E+02    1.1291525035287020E+02   -2.2495901596007457E+01
Ne   -5.0956844188504377E+01   -1.9156301960847591E+02    2.2572445934647573E+02
Ne    5.5632707914402062E+01   -6.9055057574722775E+02   -1.9888067741665301E+02
Ne   -1.7501946640373424E+02    5.7066424059526514E+02   -1.2976749051762414E+02
Ne   -5.0302647871595639E+02   -8.5053819347508494E+01   -3.1133638726629761E+02
Ne   -3.0942689168584980E+01    1.8054586020453860E+02   -1.7884016543055003E+02
Ne   -1.9298694485608576E+02   -5.2639729579685216E+01    2.7830654244710644E+02
Ne   -1.1414006328341478E+02    2.8713283546787653E+02    3.8954619929596070E+01
Ne    2.3025056942659626E+02    7.5326652287703197E+01   -4.5401255698196536E+01
Ne   -2.7239591538577747E+02   -3.2406887452857853E+02   -1.4047156564545216E+02
Ne    1.0198275105430336E+02    1.2073586888747457E+02    3.3015485459342489E+02
Ne   -2.9094400674108118E+02   -1.1351354459734192E+02   -3.1564794219502964E+01
     &END COORD
     &VELOCITY
           1.6929363928060929E-04    5.7586725084018767E-05    1.4413809643032782E-05
          -2.2722223791462158E-04   -5.7790834696134809E-05    1.6629983041582509E-05
          -6.3128864844064577E-05    9.5656396198131452E-05   -1.6425881628833312E-04
          -4.9299045169174315E-04   -1.2820490767033915E-04    2.4826540184273027E-04
           2.9733677825324591E-04   -2.2931272019263276E-05   -2.1402485779834876E-04
          -1.1282848148186702E-03   -7.3643181299423808E-04   -5.4433210619732743E-04
           2.7554657873544617E-04   -5.7328690580482362E-04   -3.5905247587387010E-04
           8.8983522322630957E-04    5.4079333052912222E-04    4.9248306908416530E-04
           1.5990337558726235E-03   -2.0062434442811028E-03   -8.6504335242515852E-04
          -4.5889643018662247E-04    4.5273921498453773E-04   -2.5482072048654624E-04
           2.4595857259516833E-04    3.2436700697097505E-05    9.4080902034778137E-06
          -5.4536066774522906E-04    5.2305031598006400E-04    1.5931550128406804E-04