#     Step Nr.          Time[fs]        Kin.[a.u.]          Temp[K]            Pot.[a.u.]        Cons Qty[a.u.]        UsedTime[s]
         0            0.000000         0.393255336       335.168867385         0.335574030         0.728829366         0.000000000
         1            0.100000         0.393373847       335.269873263         0.335455530         0.728829377         0.069621490
         2            0.200000         0.393529739       335.402738562         0.335299601         0.728829340         0.021051330
         3            0.300000         0.393722452       335.566986781         0.335106804         0.728829256         0.019574653
         4            0.400000         0.393950673       335.761498365         0.334878454         0.728829127         0.019189765
         5            0.500000         0.394212357       335.984529898         0.334616597         0.728828954         0.022210376
         6            0.600000         0.394504760       336.233743063         0.334323980         0.728828741         0.019658404
         7            0.700000         0.394824486       336.506243099         0.334004003         0.728828489         0.019461708
         8            0.800000         0.395167535       336.798621691         0.333660669         0.728828205         0.021474744
         9            0.900000         0.395529368       337.107008920         0.333298523         0.728827891         0.020261622
        10            1.000000         0.395904970       337.427132504         0.332922582         0.728827552         0.018760913
        11            1.100000         0.396288932       337.754380395         0.332538262         0.728827194         0.021585793
        12            1.200000         0.396675521       338.083867817         0.332151300         0.728826821         0.020300002
        13            1.300000         0.397058771       338.410508662         0.331767668         0.728826439         0.019364277
        14            1.400000         0.397432565       338.729090761         0.331393489         0.728826053         0.020885919
        15            1.500000         0.397790729       339.034352162         0.331034941         0.728825670         0.021704141
        16            1.600000         0.398127123       339.321058235         0.330698171         0.728825294         0.018876071
        17            1.700000         0.398435726       339.584078744         0.330389206         0.728824932         0.018929702
        18            1.800000         0.398710731       339.818463373         0.330113858         0.728824589         0.021250917
        19            1.900000         0.398946627       340.019515623         0.329877644         0.728824270         0.021040889
        20            2.000000         0.399138281       340.182861091         0.329685699         0.728823979         0.019430249
        21            2.100000         0.399281015       340.304512854         0.329542706         0.728823722         0.021780831
        22            2.200000         0.399370681       340.380933940         0.329452820         0.728823501         0.020110439
        23            2.300000         0.399403719       340.409092280         0.329419601         0.728823320         0.019341220
        24            2.400000         0.399377222       340.386508864         0.329445962         0.728823184         0.022023898
        25            2.500000         0.399288976       340.311297574         0.329534118         0.728823093         0.020337758
        26            2.600000         0.399137502       340.182197214         0.329685548         0.728823050         0.019824471
        27            2.700000         0.398922082       339.998596552         0.329900974         0.728823056         0.018898401
        28            2.800000         0.398642786       339.760553931         0.330180327         0.728823113         0.022432894
        29            2.900000         0.398300472       339.468802797         0.330522745         0.728823218         0.018826932
        30            3.000000         0.397896794       339.124750700         0.330926577         0.728823372         0.020138755
        31            3.100000         0.397434186       338.730472566         0.331389387         0.728823573         0.021742892
        32            3.200000         0.396915842       338.288691734         0.331907977         0.728823819         0.019524560
        33            3.300000         0.396345686       337.802751509         0.332478422         0.728824108         0.019391062
        34            3.400000         0.395728328       337.276581560         0.333096109         0.728824437         0.021407553
        35            3.500000         0.395069015       336.714653091         0.333755787         0.728824802         0.021203446
        36            3.600000         0.394373567       336.121927669         0.334451631         0.728825198         0.019164937
        37            3.700000         0.393648318       335.503803396         0.335177303         0.728825622         0.019953650
        38            3.800000         0.392900038       334.866049224         0.335926028         0.728826067         0.020931594
        39            3.900000         0.392135851       334.214737257         0.336690676         0.728826527         0.019925987
        40            4.000000         0.391363148       333.556168355         0.337463851         0.728826999         0.019010948
        41            4.100000         0.390589506       332.896798483         0.338237971         0.728827478         0.022885081
        42            4.200000         0.389822594       332.243163979         0.339005362         0.728827956         0.020709382
        43            4.300000         0.389070079       331.601800508         0.339758349         0.728828427         0.019636198
        44            4.400000         0.388339534       330.979162452         0.340489353         0.728828887         0.021252469
        45            4.500000         0.387638347       330.381544929         0.341190983         0.728829330         0.020915178
        46            4.600000         0.386973621       329.815003410         0.341856128         0.728829749         0.019442316
        47            4.700000         0.386352093       329.285279739         0.342478046         0.728830139         0.019337986
        48            4.800000         0.385780047       328.797728549         0.343050448         0.728830495         0.022290130
        49            4.900000         0.385263229       328.357247868         0.343567585         0.728830813         0.020347689
        50            5.000000         0.384806780       327.968220038         0.344024309         0.728831089         0.019649316
        51            5.100000         0.384415168       327.634451533         0.344416150         0.728831318         0.021029294
        52            5.200000         0.384092122       327.359121985         0.344739376         0.728831498         0.020661346
        53            5.300000         0.383840589       327.144741449         0.344991038         0.728831626         0.019675021
        54            5.400000         0.383662685       326.993115684         0.345169015         0.728831701         0.019656127
        55            5.500000         0.383559674       326.905319476         0.345272046         0.728831720         0.021337147
        56            5.600000         0.383531934       326.881677660         0.345299749         0.728831683         0.020029387
        57            5.700000         0.383578957       326.921755020         0.345252633         0.728831591         0.019783165
        58            5.800000         0.383699340       327.024355847         0.345132103         0.728831443         0.019821526
        59            5.900000         0.383890794       327.187531114         0.344940447         0.728831241         0.021771828
        60            6.000000         0.384150170       327.408595712         0.344680817         0.728830987         0.018918006
        61            6.100000         0.384473485       327.684155089         0.344357198         0.728830683         0.020688219
        62            6.200000         0.384855964       328.010139054         0.343974369         0.728830333         0.020419468
        63            6.300000         0.385292088       328.381844584         0.343537853         0.728829941         0.020847620
        64            6.400000         0.385775656       328.793986144         0.343053853         0.728829509         0.018967393
        65            6.500000         0.386299848       329.240751459         0.342529195         0.728829043         0.022002439
        66            6.600000         0.386857301       329.715865168         0.341971248         0.728828550         0.019699672
        67            6.700000         0.387440188       330.212655593         0.341387844         0.728828032         0.019676096
        68            6.800000         0.388040302       330.724129076         0.340787193         0.728827496         0.020614381
        69            6.900000         0.388649156       331.243050610         0.340177792         0.728826948         0.021629942
        70            7.000000         0.389258069       331.762023100         0.339568326         0.728826395         0.032609109
        71            7.100000         0.389858269       332.273569736         0.338967573         0.728825842         0.020048045
        72            7.200000         0.390440990       332.770218692         0.338384305         0.728825295         0.024002039
        73            7.300000         0.390997571       333.244589039         0.337827191         0.728824762         0.018079340
        74            7.400000         0.391519553       333.689471208         0.337304693         0.728824246         0.021413662
        75            7.500000         0.391998775       334.097908641         0.336824981         0.728823756         0.021145570
        76            7.600000         0.392427466       334.463279229         0.336395829         0.728823295         0.020597789
        77            7.700000         0.392798336       334.779369398         0.336024533         0.728822869         0.020832191
        78            7.800000         0.393104658       335.040445353         0.335717824         0.728822482         0.020309988
        79            7.900000         0.393340339       335.241314535         0.335481802         0.728822141         0.019730290
        80            8.000000         0.393499992       335.377385817         0.335321855         0.728821847         0.032895435
        81            8.100000         0.393579000       335.444723974         0.335242605         0.728821605         0.020789842
        82            8.200000         0.393573566       335.440092696         0.335247850         0.728821416         0.021879142
        83            8.300000         0.393480759       335.360993290         0.335340525         0.728821284         0.020468025
        84            8.400000         0.393298544       335.205692926         0.335522664         0.728821208         0.020228350
        85            8.500000         0.393025809       334.973242659         0.335795384         0.728821193         0.021477394
        86            8.600000         0.392662372       334.663488179         0.336158862         0.728821235         0.020613545
        87            8.700000         0.392208991       334.277074443         0.336612344         0.728821335         0.019726193
        88            8.800000         0.391667354       333.815440795         0.337154139         0.728821493         0.020964410
        89            8.900000         0.391040060       333.280802220         0.337781645         0.728821705         0.020531665
        90            9.000000         0.390330588       332.676124368         0.338491382         0.728821970         0.020095758
        91            9.100000         0.389543262       332.005091113         0.339279023         0.728822284         0.019647400
        92            9.200000         0.388683196       331.272063198         0.340139449         0.728822645         0.021931762
        93            9.300000         0.387756249       330.482032470         0.341066800         0.728823049         0.019853593
        94            9.400000         0.386768954       329.640567102         0.342054537         0.728823490         0.019076807
        95            9.500000         0.385728448       328.753751037         0.343095517         0.728823965         0.022273237
        96            9.600000         0.384642398       327.828118611         0.344182069         0.728824468         0.020548603
        97            9.700000         0.383518918       326.870583585         0.345306075         0.728824993         0.019761886
        98            9.800000         0.382366476       325.888365240         0.346459060         0.728825536         0.021139170
        99            9.900000         0.381193812       324.888911669         0.347632278         0.728826090         0.020831563
       100           10.000000         0.380009840       323.879820160         0.348816810         0.728826650         0.019212095
       101           10.100000         0.378823555       322.868757339         0.350003655         0.728827210         0.020759408
       102           10.200000         0.377643941       321.863380360         0.351183824         0.728827764         0.021055805
       103           10.300000         0.376479879       320.871258528         0.352348429         0.728828308         0.018849043
       104           10.400000         0.375340060       319.899798650         0.353488776         0.728828836         0.018990851
       105           10.500000         0.374232902       318.956175102         0.354596442         0.728829344         0.020603476
       106           10.600000         0.373166469       318.047261199         0.355663358         0.728829827         0.019869521
       107           10.700000         0.372148399       317.179567387         0.356681881         0.728830280         0.019466731
       108           10.800000         0.371185835       316.359180562         0.357644866         0.728830702         0.020973329
       109           10.900000         0.370285354       315.591706523         0.358545734         0.728831088         0.020376272
       110           11.000000         0.369452913       314.882223002         0.359378523         0.728831436         0.019260761
       111           11.100000         0.368693794       314.235230626         0.360137948         0.728831741         0.020133690
       112           11.200000         0.366503296       312.368283865         0.362328703         0.728831999         0.035459027
       113           11.300000         0.365977893       311.920486667         0.362854164         0.728832057         0.019047410
       114           11.400000         0.365536298       311.544118053         0.363295767         0.728832064         0.017986665
       115           11.500000         0.365178746       311.239378763         0.363653277         0.728832022         0.018705219
       116           11.600000         0.364904689       311.005801724         0.363927245         0.728831933         0.019662119
       117           11.700000         0.364712824       310.842277092         0.364118974         0.728831799         0.019914091
       118           11.800000         0.364601128       310.747078782         0.364230493         0.728831621         0.018387956
       119           11.900000         0.364566883       310.717892662         0.364264521         0.728831405         0.018323804
       120           12.000000         0.364606729       310.751852631         0.364224423         0.728831152         0.017234556
       121           12.100000         0.364716703       310.845583174         0.364114161         0.728830864         0.020144597
       122           12.200000         0.364892299       310.995242619         0.363938248         0.728830548         0.018850879
       123           12.300000         0.365128522       311.196573868         0.363701683         0.728830205         0.017726170
       124           12.400000         0.365419958       311.444962272         0.363409884         0.728829842         0.017194863
       125           12.500000         0.365760841       311.735494299         0.363068621         0.728829462         0.018103055
       126           12.600000         0.366145130       312.063021383         0.362683939         0.728829069         0.018063352
       127           12.700000         0.366566590       312.422228777         0.362262080         0.728828670         0.018262994
       128           12.800000         0.367018868       312.807702594         0.361809399         0.728828267         0.017905357
       129           12.900000         0.367495576       313.213997243         0.361332293         0.728827868         0.017993338
       130           13.000000         0.367990369       313.635706632         0.360837109         0.728827479         0.017328150
       131           13.100000         0.368497036       314.067534881         0.360330067         0.728827102         0.017629098
       132           13.200000         0.369009570       314.504364111         0.359817174         0.728826744         0.018199375
       133           13.300000         0.369522252       314.941319641         0.359304156         0.728826408         0.018659848
       134           13.400000         0.370029719       315.373830881         0.358796379         0.728826098         0.017374644
       135           13.500000         0.370527032       315.797686920         0.358298788         0.728825820         0.017770424
       136           13.600000         0.371009733       316.209090215         0.357815842         0.728825576         0.017393004
       137           13.700000         0.371473905       316.604700889         0.357351463         0.728825368         0.018369299
       138           13.800000         0.371916214       316.981677158         0.356908987         0.728825200         0.017255560
       139           13.900000         0.372333950       317.337711314         0.356491123         0.728825073         0.018265113
       140           14.000000         0.372725057       317.671048664         0.356099931         0.728824988         0.018736010
       141           14.100000         0.373088146       317.980507469         0.355736800         0.728824946         0.018918776
       142           14.200000         0.373422522       318.265493776         0.355402425         0.728824947         0.018105787
       143           14.300000         0.373728173       318.525998225         0.355096818         0.728824991         0.018431243
       144           14.400000         0.374005767       318.762589513         0.354819310         0.728825077         0.018303470
       145           14.500000         0.374256634       318.976401989         0.354568568         0.728825203         0.019451693
       146           14.600000         0.374482742       319.169112175         0.354342623         0.728825365         0.019063149
       147           14.700000         0.374686654       319.342905085         0.354138909         0.728825564         0.044187547
       148           14.800000         0.374871487       319.500436867         0.353954306         0.728825794         0.089875226
       149           14.900000         0.375040860       319.644791873         0.353785192         0.728826051         0.029761100
       150           15.000000         0.375198831       319.779429515         0.353627502         0.728826332         0.046647917
       151           15.100000         0.375349832       319.908126831         0.353476800         0.728826632         0.039461203
       152           15.200000         0.375498594       320.034916082         0.353328352         0.728826946         0.016938251
       153           15.300000         0.375650072       320.164019326         0.353177196         0.728827268         0.018935890
       154           15.400000         0.375809357       320.299777007         0.353018237         0.728827594         0.018401237
       155           15.500000         0.375981598       320.446577046         0.352846320         0.728827918         0.018494425
       156           15.600000         0.376171917       320.608784500         0.352656318         0.728828235         0.017752682
       157           15.700000         0.376385323       320.790668888         0.352443217         0.728828540         0.018289062
       158           15.800000         0.376626627       320.996330801         0.352202200         0.728828827         0.019196760
       159           15.900000         0.376900360       321.229631550         0.351928731         0.728829092         0.020140810
       160           16.000000         0.377210695       321.494127894         0.351618634         0.728829329         0.019156222
       161           16.100000         0.377561372       321.793007637         0.351268162         0.728829534         0.017955667
       162           16.200000         0.377955629       322.129030408         0.350874075         0.728829704         0.018513520
       163           16.300000         0.378396140       322.504474725         0.350433695         0.728829835         0.019009342
       164           16.400000         0.378884958       322.921090927         0.349944966         0.728829924         0.020360636
       165           16.500000         0.379423468       323.380059042         0.349406501         0.728829968         0.017589509
       166           16.600000         0.380012348       323.881958098         0.348817619         0.728829967         0.019057322
       167           16.700000         0.380651544       324.426740178         0.348178374         0.728829918         0.018066275
       168           16.800000         0.381340242       325.013712811         0.347489577         0.728829819         0.019501795
       169           16.900000         0.382076866       325.641532989         0.346752806         0.728829672         0.018324474
       170           17.000000         0.382859076       326.308204780         0.345970402         0.728829478         0.017981946
       171           17.100000         0.383683772       327.011087652         0.345145466         0.728829238         0.017329124
       172           17.200000         0.384547124       327.746916439         0.344281831         0.728828954         0.017732740
       173           17.300000         0.385444597       328.511826699         0.343384032         0.728828628         0.018507179
       174           17.400000         0.386370994       329.301389087         0.342457270         0.728828264         0.018106583
       175           17.500000         0.387320508       330.110653592         0.341507356         0.728827864         0.018149846
       176           17.600000         0.388286779       330.934199359         0.340540656         0.728827434         0.017116339
       177           17.700000         0.389262960       331.766191696         0.339564019         0.728826979         0.016672356
       178           17.800000         0.390241794       332.600445411         0.338584708         0.728826502         0.018069439
       179           17.900000         0.391215694       333.430493597         0.337610316         0.728826010         0.017566840
       180           18.000000         0.392176826       334.249660277         0.336648682         0.728825508         0.017837537
       181           18.100000         0.393117203       335.051137091         0.335707800         0.728825003         0.017880017
       182           18.200000         0.394028778       335.828066399         0.334795720         0.728824498         0.017951754
       183           18.300000         0.394903540       336.573620334         0.333920464         0.728824004         0.016896934
       184           18.400000         0.395733610       337.281083351         0.333089914         0.728823524         0.016301586
       185           18.500000         0.396511343       337.943939877         0.332311722         0.728823065         0.017294531
       186           18.600000         0.397229422       338.555953823         0.331593211         0.728822633         0.018319832
       187           18.700000         0.397880951       339.111247832         0.330941282         0.728822234         0.017961768
       188           18.800000         0.398459547       339.604380621         0.330362327         0.728821874         0.018250847
       189           18.900000         0.398959418       340.030417538         0.329862139         0.728821556         0.017407837
       190           19.000000         0.399375448       340.384997453         0.329445839         0.728821288         0.016837124
       191           19.100000         0.399703256       340.664385934         0.329117813         0.728821069         0.016560264
       192           19.200000         0.399939250       340.865521443         0.328881653         0.728820903         0.017960414
       193           19.300000         0.400080671       340.986054392         0.328740120         0.728820792         0.017575415
       194           19.400000         0.400125616       341.024360683         0.328695117         0.728820734         0.018704440
       195           19.500000         0.400147110       341.042679350         0.328673511         0.728820621         0.018163919
       196           19.600000         0.400072255       340.978880723         0.328748320         0.728820574         0.017560829
       197           19.700000         0.399900702       340.832667693         0.328919895         0.728820597         0.017263406
       198           19.800000         0.399633127       340.604615011         0.329187557         0.728820683         0.018417199
       199           19.900000         0.399271204       340.296150624         0.329549627         0.728820831         0.017691049
       200           20.000000         0.398817574       339.909524759         0.330003466         0.728821040         0.018533702
