#     Step Nr.          Time[fs]        Kin.[a.u.]          Temp[K]            Pot.[a.u.]        Cons Qty[a.u.]        UsedTime[s]
         0            0.000000         2.412123729       564.840579357         2.440744520         4.852868249         0.000000000
         1            0.100000         2.440920801       571.583912900         2.411925255         4.852846056         0.685061079
         2            0.200000         2.468337018       578.003895329         2.384488166         4.852825185         0.168432100
         3            0.300000         2.494040966       584.022920259         2.358764945         4.852805911         0.154042937
         4            0.400000         2.517726857       589.569382072         2.335061625         4.852788482         0.135678681
         5            0.500000         2.539118447       594.578593793         2.313654667         4.852773114         0.181902343
         6            0.600000         2.557972514       598.993600286         2.294787473         4.852759987         0.197370725
         7            0.700000         2.574081917       602.765896260         2.278667366         4.852749283         0.197200870
         8            0.800000         2.587278186       605.856031211         2.265462932         4.852741117         0.199026152
         9            0.900000         2.597433608       608.234099383         2.255301992         4.852735600         0.204151658
        10            1.000000         2.604462779       609.880101707         2.248270004         4.852732783         0.196103731
        11            1.100000         2.608323599       610.784179508         2.244409107         4.852732706         0.197210027
        12            1.200000         2.609017683       610.946711272         2.243717651         4.852735334         0.206499433
        13            1.300000         2.606590160       610.378264849         2.246150480         4.852740640         0.192873303
        14            1.400000         2.601128953       609.099428433         2.251619583         4.852748536         0.176112559
        15            1.500000         2.592763517       607.140516666         2.259995401         4.852758918         0.193261432
        16            1.600000         2.581663025       604.541144066         2.271108601         4.852771626         0.197735755
        17            1.700000         2.568033938       601.349657126         2.284752547         4.852786485         0.188918380
        18            1.800000         2.552117144       597.622463853         2.300686147         4.852803290         0.195221711
        19            1.900000         2.534184686       593.423268030         2.318637131         4.852821817         0.206541540
        20            2.000000         2.514536079       588.822206226         2.338305718         4.852841797         0.196361560
        21            2.100000         2.493494202       583.894885867         2.359368760         4.852862962         0.180584172
        22            2.200000         2.471400878       578.721351162         2.381484146         4.852885024         0.198275201
        23            2.300000         2.448612266       573.385002657         2.404295426         4.852907692         0.197766598
        24            2.400000         2.425494076       567.971477885         2.427436565         4.852930641         0.192203164
        25            2.500000         2.402416615       562.567490399         2.450536941         4.852953556         0.184373712
        26            2.600000         2.379749705       557.259640438         2.473226418         4.852976122         0.196817374
        27            2.700000         2.357857699       552.133247795         2.495140348         4.852998047         0.179957030
        28            2.800000         2.337094636       547.271216676         2.515924393         4.853019028         0.184863884
        29            2.900000         2.317799435       542.752911035         2.535239342         4.853038777         0.159577612
        30            3.000000         2.300291290       538.653075447         2.552765738         4.853057028         0.164480366
        31            3.100000         2.284865351       535.040824348         2.568208162         4.853073512         0.156003378
        32            3.200000         2.271788644       531.978686752         2.581299375         4.853088018         0.155498188
        33            3.300000         2.261296427       529.521752237         2.591803918         4.853100345         0.166209500
        34            3.400000         2.253588989       527.716922247         2.599521320         4.853110309         0.166224027
        35            3.500000         2.248828866       526.602256946         2.604288907         4.853117774         0.141482670
        36            3.600000         2.247138544       526.206438754         2.605984080         4.853122625         0.164584825
        37            3.700000         2.248598743       526.548369537         2.604526039         4.853124782         0.141768843
        38            3.800000         2.253247222       527.636891499         2.599877014         4.853124236         0.198132075
        39            3.900000         2.261078117       529.470631190         2.592042844         4.853120960         0.169804713
        40            4.000000         2.272041884       532.037987267         2.581073111         4.853114995         0.176828647
        41            4.100000         2.286045810       535.317249422         2.567060596         4.853106406         0.199722365
        42            4.200000         2.302955059       539.276843072         2.550140231         4.853095290         0.182474408
        43            4.300000         2.322594294       543.875710299         2.530487496         4.853081790         0.202893170
        44            4.400000         2.344749906       549.063830826         2.508316162         4.853066068         0.200424062
        45            4.500000         2.369172685       554.782847845         2.483875638         4.853048323         0.088641264
        46            4.600000         2.395580901       560.966789412         2.457447885         4.853028786         0.150339041
        47            4.700000         2.423663899       567.542910120         2.429343796         4.853007695         0.138908988
        48            4.800000         2.453086069       574.432621206         2.399899262         4.852985331         0.137971919
        49            4.900000         2.483491068       581.552478759         2.369470902         4.852961970         0.098308021
        50            5.000000         2.514506390       588.815253950         2.338431521         4.852937911         0.149583044
        51            5.100000         2.545748123       596.131047220         2.307165340         4.852913463         0.162360292
        52            5.200000         2.576825848       603.408435129         2.276063092         4.852888940         0.090708913
        53            5.300000         2.607347665       610.555647650         2.245516991         4.852864656         0.192155838
        54            5.400000         2.636925256       617.481753334         2.215915661         4.852840918         0.183679491
        55            5.500000         2.665178898       624.097833243         2.187639151         4.852818049         0.185500866
        56            5.600000         2.691742307       630.318115789         2.161054032         4.852796338         0.168485399
        57            5.700000         2.716267390       636.061089010         2.136508668         4.852776058         0.160748428
        58            5.800000         2.738428780       641.250562678         2.114328715         4.852757495         0.108284310
        59            5.900000         2.757928036       645.816651418         2.094812836         4.852740872         0.178095464
        60            6.000000         2.774497507       649.696680385         2.078228897         4.852726404         0.157359451
        61            6.100000         2.787903811       652.835998696         2.064810484         4.852714295         0.169341620
        62            6.200000         2.797950927       655.188705081         2.054753773         4.852704700         0.163916158
        63            6.300000         2.804482811       656.718258948         2.048214937         4.852697748         0.163397988
        64            6.400000         2.807385456       657.397963528         2.045308088         4.852693544         0.156193785
        65            6.500000         2.806588467       657.211334766         2.046103671         4.852692138         0.155342571
        66            6.600000         2.802066061       656.152335068         2.050627499         4.852693560         0.155961333
        67            6.700000         2.793837507       654.225476537         2.058860302         4.852697809         0.160945369
        68            6.800000         2.781966997       651.445790815         2.070737845         4.852704842         0.156579984
        69            6.900000         2.766562980       647.838673302         2.086151599         4.852714579         0.339376988
        70            7.000000         2.747776920       643.439591770         2.104949977         4.852726897         0.155790016
        71            7.100000         2.725801514       638.293669499         2.126940141         4.852741655         0.155605620
        72            7.200000         2.700868403       632.455149420         2.151890292         4.852758695         0.168005744
        73            7.300000         2.673245355       625.986734037         2.179532437         4.852777792         0.158035237
        74            7.400000         2.643233053       618.958833188         2.209565665         4.852798718         0.155407665
        75            7.500000         2.611161470       611.448716097         2.241659769         4.852821238         0.156176873
        76            7.600000         2.577386215       603.539654895         2.275459004         4.852845219         0.156565901
        77            7.700000         2.542300185       595.323652764         2.310580544         4.852880728         0.155619979
        78            7.800000         2.506445733       586.927711355         2.346390702         4.852836435         0.157691829
        79            7.900000         2.470216759       578.444069239         2.382644875         4.852861634         0.156844994
        80            8.000000         2.433873560       569.933679341         2.419013952         4.852887513         0.155543877
        81            8.100000         2.397824789       561.492234673         2.455088430         4.852913219         0.077625273
        82            8.200000         2.362476953       553.214926115         2.490461442         4.852938394         0.117481723
        83            8.300000         2.328228168       545.194979642         2.524734551         4.852962719         0.142846117
        84            8.400000         2.295463172       537.522487879         2.557522726         4.852985898         0.098309088
        85            8.500000         2.264548570       530.283298082         2.588459090         4.853007660         0.141799306
        86            8.600000         2.235828405       523.557973532         2.617199317         4.853027722         0.099069692
        87            8.700000         2.209619932       517.420805424         2.643425933         4.853045865         0.163288556
        88            8.800000         2.186209789       511.938914634         2.666852067         4.853061856         0.120744796
        89            8.900000         2.165850524       507.171439829         2.687224994         4.853075518         0.108980948
        90            9.000000         2.148757525       503.168817947         2.704329154         4.853086679         0.145197729
        91            9.100000         2.135106477       499.972188332         2.717988732         4.853095209         0.134305215
        92            9.200000         2.125031250       497.612899312         2.728069765         4.853101015         0.148082823
        93            9.300000         2.118622344       496.112142834         2.734481679         4.853104022         0.102357222
        94            9.400000         2.115925898       495.480723404         2.737178312         4.853104210         0.156358965
        95            9.500000         2.116943200       495.718942238         2.736158380         4.853101580         0.137357242
        96            9.600000         2.121630774       496.816618842         2.731465402         4.853096175         0.095619140
        97            9.700000         2.129901014       498.753239050         2.723187059         4.853088073         0.157148231
        98            9.800000         2.141623394       501.498237509         2.711453983         4.853077377         0.198344158
        99            9.900000         2.156626228       505.011411075         2.696438003         4.853064231         0.180208907
       100           10.000000         2.174698905       509.243441651         2.678349891         4.853048796         0.135520929
       101           10.100000         2.195594642       514.136540654         2.657436641         4.853031283         0.087449823
       102           10.200000         2.219033629       519.625185672         2.633978286         4.853011915         0.119399618
       103           10.300000         2.244706592       525.636955013         2.608284331         4.852990924         0.114239443
       104           10.400000         2.272278801       532.093465507         2.580689799         4.852968600         0.154809160
       105           10.500000         2.301394274       538.911358179         2.551550928         4.852945202         0.157636881
       106           10.600000         2.331680293       546.003354385         2.521240762         4.852921054         0.167453503
       107           10.700000         2.362752136       553.279365081         2.490144296         4.852896432         0.091477901
       108           10.800000         2.394217938       560.647627938         2.458653716         4.852871653         0.176039504
       109           10.900000         2.425683629       568.015864916         2.427163406         4.852847035         0.114954252
       110           11.000000         2.456757884       575.292440443         2.396065010         4.852822895         0.120363768
       111           11.100000         2.487057005       582.387504735         2.365742510         4.852799515         0.091850761
       112           11.200000         2.516209722       589.214118644         2.336567456         4.852777178         0.130446348
       113           11.300000         2.543861862       595.689346635         2.308894300         4.852756163         0.187004438
       114           11.400000         2.569680716       601.735278611         2.283056032         4.852736748         0.145437498
       115           11.500000         2.593359140       607.279992160         2.259360020         4.852719161         0.087734187
       116           11.600000         2.614619375       612.258444598         2.238084249         4.852703624         0.121299796
       117           11.700000         2.633216410       616.613262667         2.219473889         4.852690299         0.115603700
       118           11.800000         2.648940941       620.295434251         2.203738412         4.852679354         0.127690367
       119           11.900000         2.661621891       623.264898283         2.191049026         4.852670917         0.173672067
       120           12.000000         2.671128406       625.491013590         2.181536672         4.852665078         0.141338982
       121           12.100000         2.677371332       626.952902975         2.175290571         4.852661903         0.124733726
       122           12.200000         2.680304178       627.639679711         2.172357229         4.852661407         0.108001618
       123           12.300000         2.679923496       627.550536319         2.172740099         4.852663594         0.125771431
       124           12.400000         2.676268760       626.694716651         2.176399650         4.852668410         0.126337355
       125           12.500000         2.669421680       625.091354083         2.183254119         4.852675799         0.109841526
       126           12.600000         2.659504883       622.769164275         2.193180738         4.852685621         0.140650118
       127           12.700000         2.646680249       619.766054012         2.206017512         4.852697762         0.128088458
       128           12.800000         2.631146628       616.128587439         2.221565411         4.852712039         0.089132072
       129           12.900000         2.613137037       611.911329515         2.239591215         4.852728252         0.127890274
       130           13.000000         2.592915526       607.176112157         2.259830660         4.852746186         0.077011861
       131           13.100000         2.570773641       601.991206088         2.281991946         4.852765587         0.087006617
       132           13.200000         2.547026478       596.430396280         2.305759732         4.852786210         0.120629076
       133           13.300000         2.522008490       590.572000711         2.330799259         4.852807749         0.107948136
       134           13.400000         2.496069096       584.497841991         2.356760857         4.852829953         0.095177194
       135           13.500000         2.469568021       578.292155856         2.383284471         4.852852492         0.101996753
       136           13.600000         2.442870527       572.040475078         2.410004554         4.852875081         0.138855960
       137           13.700000         2.416342647       565.828512071         2.436554776         4.852897423         0.076485282
       138           13.800000         2.390346333       559.741024623         2.462572888         4.852919221         0.141590131
       139           13.900000         2.365234669       553.860693266         2.487705501         4.852940170         0.129982304
       140           14.000000         2.341347288       548.267048841         2.511612716         4.852960004         0.089178093
       141           14.100000         2.319005921       543.035430559         2.533972545         4.852978466         0.142855411
       142           14.200000         2.298510215       538.236005722         2.554485089         4.852995304         0.121615298
       143           14.300000         2.280133796       533.932848821         2.572876510         4.853010306         0.089344386
       144           14.400000         2.264120692       530.183102893         2.588902573         4.853023265         0.113065682
       145           14.500000         2.250682156       527.036236919         2.602351860         4.853034017         0.076083360
       146           14.600000         2.239993896       524.533395430         2.613048510         4.853042406         0.075006561
       147           14.700000         2.232193825       522.706873559         2.620854505         4.853048330         0.126206081
       148           14.800000         2.227380306       521.579704783         2.625671407         4.853051713         0.077201383
       149           14.900000         2.225610868       521.165360199         2.627441636         4.853052504         0.214722795
       150           15.000000         2.226901478       521.467578933         2.626149224         4.853050703         0.154288247
       151           15.100000         2.231226404       522.480335180         2.621819924         4.853046328         0.145344684
       152           15.200000         2.238518585       524.187925947         2.614520854         4.853039440         0.158445749
       153           15.300000         2.248670558       526.565186348         2.604359574         4.853030132         0.119921410
       154           15.400000         2.261535882       529.577824928         2.591482647         4.853018529         0.099179521
       155           15.500000         2.276931126       533.182888050         2.576073653         4.853004778         0.072212964
       156           15.600000         2.294638332       537.329337308         2.558350737         4.852989069         0.072711648
       157           15.700000         2.314407910       541.958726538         2.538563685         4.852971595         0.071606783
       158           15.800000         2.335961947       547.005977894         2.516990653         4.852952599         0.073316948
       159           15.900000         2.358997846       552.400232943         2.493934498         4.852932344         0.071039898
       160           16.000000         2.383192390       558.065804931         2.469718691         4.852911082         0.072664607
       161           16.100000         2.408206028       563.923181671         2.444683066         4.852889094         0.071944948
       162           16.200000         2.433687364       569.890078225         2.419179314         4.852866678         0.071668901
       163           16.300000         2.459277829       575.882529029         2.393566309         4.852844137         0.071954707
       164           16.400000         2.484616342       581.815981219         2.368205408         4.852821751         0.071393238
       165           16.500000         2.509344179       587.606432725         2.343455644         4.852799823         0.070939936
       166           16.600000         2.533109696       593.171540601         2.319668947         4.852778643         0.072214799
       167           16.700000         2.555572923       598.431694364         2.297185583         4.852758505         0.072077595
       168           16.800000         2.576410093       603.311078992         2.276329559         4.852739653         0.071520846
       169           16.900000         2.595317929       607.738676554         2.257404426         4.852722355         0.072911620
       170           17.000000         2.612017675       611.649211433         2.240689182         4.852706857         0.071318381
       171           17.100000         2.626258845       614.984028342         2.226434503         4.852693349         0.071485976
       172           17.200000         2.637822526       617.691864548         2.214859497         4.852682023         0.072243316
       173           17.300000         2.646524312       619.729538686         2.206148709         4.852673021         0.070996799
       174           17.400000         2.652216818       621.062537464         2.200449659         4.852666477         0.072352571
       175           17.500000         2.654791632       621.665474862         2.197870850         4.852662482         0.072315400
       176           17.600000         2.654180897       621.522460718         2.198480191         4.852661088         0.070843428
       177           17.700000         2.650358289       620.627330721         2.202304052         4.852662341         0.072213674
       178           17.800000         2.643339412       618.983738979         2.209326804         4.852666215         0.072514130
       179           17.900000         2.633181783       616.605154061         2.219490898         4.852672681         0.071375296
       180           18.000000         2.619984233       613.514718999         2.232697432         4.852681665         0.071724113
       181           18.100000         2.603885730       609.744975655         2.248807314         4.852693045         0.072384544
       182           18.200000         2.585063722       605.337476162         2.267642997         4.852706719         0.071703013
       183           18.300000         2.563732005       600.342284881         2.288990502         4.852722507         0.072269615
       184           18.400000         2.540138056       594.817352899         2.312602158         4.852740215         0.071664972
       185           18.500000         2.514559997       588.827807009         2.338199625         4.852759623         0.072433839
       186           18.600000         2.487303152       582.445144267         2.365477349         4.852780501         0.073097872
       187           18.700000         2.458696223       575.746336095         2.394106347         4.852802571         0.085781662
       188           18.800000         2.429087226       568.812876161         2.423738340         4.852825566         0.149258001
       189           18.900000         2.398839078       561.729748031         2.454010133         4.852849211         0.150934707
       190           19.000000         2.368325088       554.584368494         2.484548137         4.852873226         0.162439281
       191           19.100000         2.337924327       547.465503202         2.514972955         4.852897282         0.089674614
       192           19.200000         2.308016807       540.462139164         2.544904288         4.852921095         0.103677548
       193           19.300000         2.278978693       533.662361328         2.573965678         4.852944371         0.076600205
       194           19.400000         2.251177616       527.152257311         2.601789193         4.852966809         0.077022431
       195           19.500000         2.224968052       521.014833692         2.628020087         4.852988139         0.077028384
       196           19.600000         2.200686852       515.328969820         2.652321239         4.853008090         0.077058870
       197           19.700000         2.178648986       510.168421561         2.674377423         4.853026409         0.076726295
       198           19.800000         2.159143564       505.600888926         2.693899303         4.853042867         0.077282554
       199           19.900000         2.142430149       501.687153052         2.710627110         4.853057259         0.076799260
       200           20.000000         2.128735487       498.480310721         2.724333914         4.853069401         0.077483632
