 DBCSR| Multiplication driver                                               XSMM
 DBCSR| Multrec recursion limit                                              512
 DBCSR| Multiplication stack size                                           1000
 DBCSR| Maximum elements for images                                    UNLIMITED
 DBCSR| Randmat seed                                                    12341313
 DBCSR| Multiplication size stacks                                             3


  **** **** ******  **  PROGRAM STARTED AT               2021-04-29 14:23:29.583
 ***** ** ***  *** **   PROGRAM STARTED ON               bulstake.phys.ucl.ac.uk
 **    ****   ******    PROGRAM STARTED BY                             sgiannini
 ***** **    ** ** **   PROGRAM PROCESS ID                                 12983
  **** **  *******  **  PROGRAM STARTED IN /scratch/sgiannini/REG_TEST_MERGING/3
                                           7-071a0540f1_code_extension_V3_ADJ/ru
                                           n-fssh-BOMD

 CP2K| version string:                    CP2K version 4.0 (Development Version)
 CP2K| source code revision number:                                  git:1080fc1
 CP2K| cp2kflags: libint fftw3 libxc quip smm_dnn smm libxsmm libderiv_max_am1=5
 CP2K|             libint_max_am=6
 CP2K| is freely available from                            https://www.cp2k.org/
 CP2K| Program compiled at                          Thu 29 Apr 10:11:08 BST 2021
 CP2K| Program compiled on                               bulstake.phys.ucl.ac.uk
 CP2K| Program compiled for                                         local_hetero
 CP2K| Data directory path           /scratch/sgiannini/flavoured-cptk/cp2k/data
 CP2K| Input file name                                                   run.inp

 GLOBAL| Force Environment number                                              1
 GLOBAL| Basis set file name                                           POTENTIAL
 GLOBAL| MM Potential file name                                     MM_POTENTIAL
 GLOBAL| Coordinate file name                                       pos-init.xyz
 GLOBAL| Force Environment number                                              2
 GLOBAL| Basis set file name                                           POTENTIAL
 GLOBAL| MM Potential file name                                     MM_POTENTIAL
 GLOBAL| Coordinate file name                                       pos-init.xyz
 GLOBAL| Force Environment number                                              3
 GLOBAL| Basis set file name                                           POTENTIAL
 GLOBAL| MM Potential file name                                     MM_POTENTIAL
 GLOBAL| Coordinate file name                                       pos-init.xyz
 GLOBAL| Method name                                                        CP2K
 GLOBAL| Project name                                                        run
 GLOBAL| Preferred FFT library                                             FFTW3
 GLOBAL| Preferred diagonalization lib.                                       SL
 GLOBAL| Run type                                                             MD
 GLOBAL| All-to-all communication in single precision                          F
 GLOBAL| FFTs using library dependent lengths                                  F
 GLOBAL| Global print level                                                  LOW
 GLOBAL| Total number of message passing processes                             1
 GLOBAL| Number of threads for this process                                    1
 GLOBAL| This output is from process                                           0
 GLOBAL| CPU model name :  Intel(R) Xeon(R) CPU E5-2687W v4 @ 3.00GHz

 MEMORY| system memory details [Kb]
 MEMORY|                        rank 0           min           max       average
 MEMORY| MemTotal             65894336      65894336      65894336      65894336
 MEMORY| MemFree               6882280       6882280       6882280       6882280
 MEMORY| Buffers                  8744          8744          8744          8744
 MEMORY| Cached               40779116      40779116      40779116      40779116
 MEMORY| Slab                  3236700       3236700       3236700       3236700
 MEMORY| SReclaimable          2479316       2479316       2479316       2479316
 MEMORY| MemLikelyFree        50149456      50149456      50149456      50149456

 TOTAL NUMBER OF FORCE EVALS           3
 NOTE:n_subforce_eval           2
 DECOMP =  T
 DECOMP =  T

 MD| Molecular Dynamics Protocol 
 MD| Ensemble Type                                                           NVE
 MD| Number of Time Steps                                                    200
 MD| Time Step [fs]                                                         0.10
 MD| Temperature [K]                                                      400.00
 MD| Temperature tolerance [K]                                              0.00
 MD| Print MD information every                                        1 step(s)
 MD| File type     Print frequency[steps]                             File names
 MD| Coordinates          200                                      run-pos-1.xyz
 MD| Velocities             1                                      run-vel-1.xyz
 MD| Energies               1                                         run-1.ener
 MD| Dump                 200                                      run-1.restart

 ROT| Rotational Analysis Info 
 ROT| Principal axes and moments of inertia in atomic units:
 ROT|                                1                 2                 3
 ROT| EIGENVALUES            0.319196005E+10   0.583971964E+10   0.882037602E+10
 ROT|      X                     0.997631408       0.066105605       0.019016393
 ROT|      Y                     0.066118536      -0.997811774      -0.000051363
 ROT|      Z                    -0.018971385      -0.001308578       0.999819171
 ROT| Numer of Rotovibrational vectors:     6

 Calculation of degrees of freedom
                                                      Number of atoms:       900
                                 Number of Intramolecular constraints:         0
                                 Number of Intermolecular constraints:         0
                                  Invariants(translation + rotations):         3
                                                   Degrees of freedom:      2697


 Restraints Information
                                  Number of Intramolecular restraints:         0
                                  Number of Intermolecular restraints:         0

 *** WARNING in motion/thermostat/thermostat_methods.F:280 :: Thermostat ***
 *** for Particles has been defined but the ensemble provided does not   ***
 *** support thermostat for Particles! Ignoring thermostat input.        ***

 ************************** Velocities initialization **************************
 Initial Temperature                                                    564.84 K
 COM velocity:           -0.000000000004     -0.000000000000      0.000000000001
 *******************************************************************************

 FIRST CALL: force_env_calc_energy_force
 RESTART_KEY F
 FOB-SH: ALLOCATION OF S MATRICES
 ACTIVE STATE           1
 FOBSH| ACTIVE STATE =            1

 ENERGY| Total FORCE_EVAL ( MIXED ) energy (a.u.):             2.440744519662534

 STEP NUMBER                  =            0
 CPU TIME [s]                 =    0.0000000000000000        0.0000000000000000     

 MD_ENERGIES| Initialization proceeding


 ******************************** GO CP2K GO! **********************************
 INITIAL POTENTIAL ENERGY[hartree]     =                      0.244074451966E+01
 INITIAL KINETIC ENERGY[hartree]       =                      0.241212372912E+01
 INITIAL TEMPERATURE[K]                =                                 564.841
 INITIAL VOLUME[bohr^3]                =                      0.580604601118E+05
 INITIAL CELL LNTHS[bohr]   =      0.7651501E+02   0.5624770E+02   0.1634991E+02
 INITIAL CELL ANGLS[deg]    =      0.9000000E+02   0.1244000E+03   0.9000000E+02
 ******************************** GO CP2K GO! **********************************
 FOBSH| *** OFF-DIAGONAL GRADIENT CALCULATION
 FOBSH| Put former active state           1 in new active state           1
 FOBSH| ACTIVE STATE =            1

 ENERGY| Total FORCE_EVAL ( MIXED ) energy (a.u.):             2.411925255028053

 FOBSH| CASE1: no hop and no trivial crossing
 ENTER integrator.F
 STEP NUMBER                  =            1
 CPU TIME [s]                 =   0.68506107851862907       0.68506107851862907     

 *******************************************************************************
 ENSEMBLE TYPE                =                                              NVE
 STEP NUMBER                  =                                                1
 TIME [fs]                    =                                         0.100000
 CONSERVED QUANTITY [hartree] =                               0.485284605619E+01

                                              INSTANTANEOUS             AVERAGES
 CPU TIME [s]                 =                        0.69                 0.69
 ENERGY DRIFT PER ATOM [K]    =         -0.778651137650E-02   0.000000000000E+00
 POTENTIAL ENERGY[hartree]    =          0.241192525503E+01   0.241192525503E+01
 KINETIC ENERGY [hartree]     =          0.244092080116E+01   0.244092080116E+01
 TEMPERATURE [K]              =                     571.584              571.584
 *******************************************************************************

 FOBSH| *** OFF-DIAGONAL GRADIENT CALCULATION
 FOBSH| Put former active state           1 in new active state           1
 FOBSH| ACTIVE STATE =            1

 ENERGY| Total FORCE_EVAL ( MIXED ) energy (a.u.):             2.384488166410645

 FOBSH| CASE1: no hop and no trivial crossing
 ENTER integrator.F
 STEP NUMBER                  =            2
 CPU TIME [s]                 =   0.16843209974467754       0.42674658913165331     

 *******************************************************************************
 ENSEMBLE TYPE                =                                              NVE
 STEP NUMBER                  =                                                2
 TIME [fs]                    =                                         0.200000
 CONSERVED QUANTITY [hartree] =                               0.485282518468E+01

                                              INSTANTANEOUS             AVERAGES
 CPU TIME [s]                 =                        0.17                 0.43
 ENERGY DRIFT PER ATOM [K]    =         -0.151095017476E-01  -0.755475087378E-02
 POTENTIAL ENERGY[hartree]    =          0.238448816641E+01   0.239820671072E+01
 KINETIC ENERGY [hartree]     =          0.246833701827E+01   0.245462890972E+01
 TEMPERATURE [K]              =                     578.004              574.794
 *******************************************************************************

 FOBSH| *** OFF-DIAGONAL GRADIENT CALCULATION
 FOBSH| Put former active state           1 in new active state           1
 FOBSH| ACTIVE STATE =            1

 ENERGY| Total FORCE_EVAL ( MIXED ) energy (a.u.):             2.358764944771437

 FOBSH| CASE1: no hop and no trivial crossing
 ENTER integrator.F
 STEP NUMBER                  =            3
 CPU TIME [s]                 =   0.15404293686151505       0.33584537170827389     

 *******************************************************************************
 ENSEMBLE TYPE                =                                              NVE
 STEP NUMBER                  =                                                3
 TIME [fs]                    =                                         0.300000
 CONSERVED QUANTITY [hartree] =                               0.485280591101E+01

                                              INSTANTANEOUS             AVERAGES
 CPU TIME [s]                 =                        0.15                 0.34
 ENERGY DRIFT PER ATOM [K]    =         -0.218718777114E-01  -0.123271264863E-01
 POTENTIAL ENERGY[hartree]    =          0.235876494477E+01   0.238505945540E+01
 KINETIC ENERGY [hartree]     =          0.249404096624E+01   0.246776626189E+01
 TEMPERATURE [K]              =                     584.023              577.870
 *******************************************************************************

 FOBSH| *** OFF-DIAGONAL GRADIENT CALCULATION
 FOBSH| Put former active state           1 in new active state           1
 FOBSH| ACTIVE STATE =            1

 ENERGY| Total FORCE_EVAL ( MIXED ) energy (a.u.):             2.335061625273472

 FOBSH| CASE1: no hop and no trivial crossing
 ENTER integrator.F
 STEP NUMBER                  =            4
 CPU TIME [s]                 =   0.13567868061363697       0.28580369893461466     

 *******************************************************************************
 ENSEMBLE TYPE                =                                              NVE
 STEP NUMBER                  =                                                4
 TIME [fs]                    =                                         0.400000
 CONSERVED QUANTITY [hartree] =                               0.485278848208E+01

                                              INSTANTANEOUS             AVERAGES
 CPU TIME [s]                 =                        0.14                 0.29
 ENERGY DRIFT PER ATOM [K]    =         -0.279870032591E-01  -0.162420956795E-01
 POTENTIAL ENERGY[hartree]    =          0.233506162527E+01   0.237255999787E+01
 KINETIC ENERGY [hartree]     =          0.251772685681E+01   0.248025641062E+01
 TEMPERATURE [K]              =                     589.569              580.795
 *******************************************************************************

 FOBSH| *** OFF-DIAGONAL GRADIENT CALCULATION
 FOBSH| Put former active state           1 in new active state           1
 FOBSH| ACTIVE STATE =            1

 ENERGY| Total FORCE_EVAL ( MIXED ) energy (a.u.):             2.313654666944402

 FOBSH| CASE1: no hop and no trivial crossing
 ENTER integrator.F
 STEP NUMBER                  =            5
 CPU TIME [s]                 =   0.18190234340727329       0.26502342782914640     

 *******************************************************************************
 ENSEMBLE TYPE                =                                              NVE
 STEP NUMBER                  =                                                5
 TIME [fs]                    =                                         0.500000
 CONSERVED QUANTITY [hartree] =                               0.485277311440E+01

                                              INSTANTANEOUS             AVERAGES
 CPU TIME [s]                 =                        0.18                 0.27
 ENERGY DRIFT PER ATOM [K]    =         -0.333789186714E-01  -0.196694602779E-01
 POTENTIAL ENERGY[hartree]    =          0.231365466694E+01   0.236077893169E+01
 KINETIC ENERGY [hartree]     =          0.253911844746E+01   0.249202881799E+01
 TEMPERATURE [K]              =                     594.579              583.552
 *******************************************************************************

 FOBSH| *** OFF-DIAGONAL GRADIENT CALCULATION
 FOBSH| Put former active state           1 in new active state           1
 FOBSH| ACTIVE STATE =            1

 ENERGY| Total FORCE_EVAL ( MIXED ) energy (a.u.):             2.294787472866950

 FOBSH| CASE1: no hop and no trivial crossing
 ENTER integrator.F
 STEP NUMBER                  =            6
 CPU TIME [s]                 =   0.19737072475254536       0.25374797731637955     

 *******************************************************************************
 ENSEMBLE TYPE                =                                              NVE
 STEP NUMBER                  =                                                6
 TIME [fs]                    =                                         0.600000
 CONSERVED QUANTITY [hartree] =                               0.485275998697E+01

                                              INSTANTANEOUS             AVERAGES
 CPU TIME [s]                 =                        0.20                 0.25
 ENERGY DRIFT PER ATOM [K]    =         -0.379848201754E-01  -0.227220202608E-01
 POTENTIAL ENERGY[hartree]    =          0.229478747287E+01   0.234978035522E+01
 KINETIC ENERGY [hartree]     =          0.255797251410E+01   0.250301943401E+01
 TEMPERATURE [K]              =                     598.994              586.125
 *******************************************************************************

 FOBSH| *** OFF-DIAGONAL GRADIENT CALCULATION
 FOBSH| Put former active state           1 in new active state           1
 FOBSH| ACTIVE STATE =            1

 ENERGY| Total FORCE_EVAL ( MIXED ) energy (a.u.):             2.278667366121267

 FOBSH| CASE1: no hop and no trivial crossing
 ENTER integrator.F
 STEP NUMBER                  =            7
 CPU TIME [s]                 =   0.19720087014138699       0.24566981914852346     

 *******************************************************************************
 ENSEMBLE TYPE                =                                              NVE
 STEP NUMBER                  =                                                7
 TIME [fs]                    =                                         0.700000
 CONSERVED QUANTITY [hartree] =                               0.485274928342E+01

                                              INSTANTANEOUS             AVERAGES
 CPU TIME [s]                 =                        0.20                 0.25
 ENERGY DRIFT PER ATOM [K]    =         -0.417402754884E-01  -0.254389138647E-01
 POTENTIAL ENERGY[hartree]    =          0.227866736612E+01   0.233962135677E+01
 KINETIC ENERGY [hartree]     =          0.257408191730E+01   0.251317121733E+01
 TEMPERATURE [K]              =                     602.766              588.503
 *******************************************************************************

 FOBSH| *** OFF-DIAGONAL GRADIENT CALCULATION
 FOBSH| Put former active state           1 in new active state           1
 FOBSH| ACTIVE STATE =            1

 ENERGY| Total FORCE_EVAL ( MIXED ) energy (a.u.):             2.265462931884498

 FOBSH| CASE1: no hop and no trivial crossing
 ENTER integrator.F
 STEP NUMBER                  =            8
 CPU TIME [s]                 =   0.19902615249156952       0.23983936081640422     

 *******************************************************************************
 ENSEMBLE TYPE                =                                              NVE
 STEP NUMBER                  =                                                8
 TIME [fs]                    =                                         0.800000
 CONSERVED QUANTITY [hartree] =                               0.485274111749E+01

                                              INSTANTANEOUS             AVERAGES
 CPU TIME [s]                 =                        0.20                 0.24
 ENERGY DRIFT PER ATOM [K]    =         -0.446053772248E-01  -0.278347217847E-01
 POTENTIAL ENERGY[hartree]    =          0.226546293188E+01   0.233035155366E+01
 KINETIC ENERGY [hartree]     =          0.258727818561E+01   0.252243458837E+01
 TEMPERATURE [K]              =                     605.856              590.672
 *******************************************************************************

 FOBSH| *** OFF-DIAGONAL GRADIENT CALCULATION
 FOBSH| Put former active state           1 in new active state           1
 FOBSH| ACTIVE STATE =            1

 ENERGY| Total FORCE_EVAL ( MIXED ) energy (a.u.):             2.255301991675123

 FOBSH| CASE1: no hop and no trivial crossing
 ENTER integrator.F
 STEP NUMBER                  =            9
 CPU TIME [s]                 =   0.20415165834128857       0.23587406054139137     

 *******************************************************************************
 ENSEMBLE TYPE                =                                              NVE
 STEP NUMBER                  =                                                9
 TIME [fs]                    =                                         0.900000
 CONSERVED QUANTITY [hartree] =                               0.485273559968E+01

                                              INSTANTANEOUS             AVERAGES
 CPU TIME [s]                 =                        0.20                 0.24
 ENERGY DRIFT PER ATOM [K]    =         -0.465413624325E-01  -0.299132374123E-01
 POTENTIAL ENERGY[hartree]    =          0.225530199168E+01   0.232201271344E+01
 KINETIC ENERGY [hartree]     =          0.259743360800E+01   0.253076781277E+01
 TEMPERATURE [K]              =                     608.234              592.623
 *******************************************************************************

 FOBSH| *** OFF-DIAGONAL GRADIENT CALCULATION
 FOBSH| Put former active state           1 in new active state           1
 FOBSH| ACTIVE STATE =            1

 ENERGY| Total FORCE_EVAL ( MIXED ) energy (a.u.):             2.248270003905425

 FOBSH| CASE1: no hop and no trivial crossing
 ENTER integrator.F
 STEP NUMBER                  =           10
 CPU TIME [s]                 =   0.19610373117029667       0.23189702760428191     

 *******************************************************************************
 ENSEMBLE TYPE                =                                              NVE
 STEP NUMBER                  =                                               10
 TIME [fs]                    =                                         1.000000
 CONSERVED QUANTITY [hartree] =                               0.485273278334E+01

                                              INSTANTANEOUS             AVERAGES
 CPU TIME [s]                 =                        0.20                 0.23
 ENERGY DRIFT PER ATOM [K]    =         -0.475295049587E-01  -0.316748641669E-01
 POTENTIAL ENERGY[hartree]    =          0.224827000391E+01   0.231463844249E+01
 KINETIC ENERGY [hartree]     =          0.260446277943E+01   0.253813730944E+01
 TEMPERATURE [K]              =                     609.880              594.349
 *******************************************************************************

 FOBSH| *** OFF-DIAGONAL GRADIENT CALCULATION
 FOBSH| Put former active state           1 in new active state           1
 FOBSH| ACTIVE STATE =            1

 ENERGY| Total FORCE_EVAL ( MIXED ) energy (a.u.):             2.244409106820197

 FOBSH| CASE1: no hop and no trivial crossing
 ENTER integrator.F
 STEP NUMBER                  =           11
 CPU TIME [s]                 =   0.19721002690494061       0.22874366390434178     

 *******************************************************************************
 ENSEMBLE TYPE                =                                              NVE
 STEP NUMBER                  =                                               11
 TIME [fs]                    =                                         1.100000
 CONSERVED QUANTITY [hartree] =                               0.485273270574E+01

                                              INSTANTANEOUS             AVERAGES
 CPU TIME [s]                 =                        0.20                 0.23
 ENERGY DRIFT PER ATOM [K]    =         -0.475567309052E-01  -0.331186702340E-01
 POTENTIAL ENERGY[hartree]    =          0.224440910682E+01   0.230825395743E+01
 KINETIC ENERGY [hartree]     =          0.260832359892E+01   0.254451788121E+01
 TEMPERATURE [K]              =                     610.784              595.843
 *******************************************************************************

 FOBSH| *** OFF-DIAGONAL GRADIENT CALCULATION
 FOBSH| Put former active state           1 in new active state           1
 FOBSH| ACTIVE STATE =            1

 ENERGY| Total FORCE_EVAL ( MIXED ) energy (a.u.):             2.243717650967411

 FOBSH| CASE1: no hop and no trivial crossing
 ENTER integrator.F
 STEP NUMBER                  =           12
 CPU TIME [s]                 =   0.20649943314492702       0.22688997800772387     

 *******************************************************************************
 ENSEMBLE TYPE                =                                              NVE
 STEP NUMBER                  =                                               12
 TIME [fs]                    =                                         1.200000
 CONSERVED QUANTITY [hartree] =                               0.485273533374E+01

                                              INSTANTANEOUS             AVERAGES
 CPU TIME [s]                 =                        0.21                 0.23
 ENERGY DRIFT PER ATOM [K]    =         -0.466346682755E-01  -0.342450034041E-01
 POTENTIAL ENERGY[hartree]    =          0.224371765097E+01   0.230287593189E+01
 KINETIC ENERGY [hartree]     =          0.260901768277E+01   0.254989286467E+01
 TEMPERATURE [K]              =                     610.947              597.102
 *******************************************************************************

 FOBSH| *** OFF-DIAGONAL GRADIENT CALCULATION
 FOBSH| Put former active state           1 in new active state           1
 FOBSH| ACTIVE STATE =            1

 ENERGY| Total FORCE_EVAL ( MIXED ) energy (a.u.):             2.246150479735708

 FOBSH| CASE1: no hop and no trivial crossing
 ENTER integrator.F
 STEP NUMBER                  =           13
 CPU TIME [s]                 =   0.19287330284714699       0.22427331068767953     

 *******************************************************************************
 ENSEMBLE TYPE                =                                              NVE
 STEP NUMBER                  =                                               13
 TIME [fs]                    =                                         1.300000
 CONSERVED QUANTITY [hartree] =                               0.485274064020E+01

                                              INSTANTANEOUS             AVERAGES
 CPU TIME [s]                 =                        0.19                 0.22
 ENERGY DRIFT PER ATOM [K]    =         -0.447728400845E-01  -0.350548369949E-01
 POTENTIAL ENERGY[hartree]    =          0.224615047974E+01   0.229851243557E+01
 KINETIC ENERGY [hartree]     =          0.260659016047E+01   0.255425419512E+01
 TEMPERATURE [K]              =                     610.378              598.123
 *******************************************************************************

 FOBSH| *** OFF-DIAGONAL GRADIENT CALCULATION
 FOBSH| Put former active state           1 in new active state           1
 FOBSH| ACTIVE STATE =            1

 ENERGY| Total FORCE_EVAL ( MIXED ) energy (a.u.):             2.251619583201599

 FOBSH| CASE1: no hop and no trivial crossing
 ENTER integrator.F
 STEP NUMBER                  =           14
 CPU TIME [s]                 =   0.17611255869269371       0.22083325697375195     

 *******************************************************************************
 ENSEMBLE TYPE                =                                              NVE
 STEP NUMBER                  =                                               14
 TIME [fs]                    =                                         1.400000
 CONSERVED QUANTITY [hartree] =                               0.485274853607E+01

                                              INSTANTANEOUS             AVERAGES
 CPU TIME [s]                 =                        0.18                 0.22
 ENERGY DRIFT PER ATOM [K]    =         -0.420024895498E-01  -0.355510978917E-01
 POTENTIAL ENERGY[hartree]    =          0.225161958320E+01   0.229516294611E+01
 KINETIC ENERGY [hartree]     =          0.260112895287E+01   0.255760239210E+01
 TEMPERATURE [K]              =                     609.099              598.907
 *******************************************************************************

 FOBSH| *** OFF-DIAGONAL GRADIENT CALCULATION
 FOBSH| Put former active state           1 in new active state           1
 FOBSH| ACTIVE STATE =            1

 ENERGY| Total FORCE_EVAL ( MIXED ) energy (a.u.):             2.259995400589752

 FOBSH| CASE1: no hop and no trivial crossing
 ENTER integrator.F
 STEP NUMBER                  =           15
 CPU TIME [s]                 =   0.19326143153011799       0.21899513527750969     

 *******************************************************************************
 ENSEMBLE TYPE                =                                              NVE
 STEP NUMBER                  =                                               15
 TIME [fs]                    =                                         1.500000
 CONSERVED QUANTITY [hartree] =                               0.485275891774E+01

                                              INSTANTANEOUS             AVERAGES
 CPU TIME [s]                 =                        0.19                 0.22
 ENERGY DRIFT PER ATOM [K]    =         -0.383599692361E-01  -0.357383559813E-01
 POTENTIAL ENERGY[hartree]    =          0.225999540059E+01   0.229281844308E+01
 KINETIC ENERGY [hartree]     =          0.259276351715E+01   0.255994646710E+01
 TEMPERATURE [K]              =                     607.141              599.456
 *******************************************************************************

 FOBSH| *** OFF-DIAGONAL GRADIENT CALCULATION
 FOBSH| Put former active state           1 in new active state           1
 FOBSH| ACTIVE STATE =            1

 ENERGY| Total FORCE_EVAL ( MIXED ) energy (a.u.):             2.271108601182723

 FOBSH| CASE1: no hop and no trivial crossing
 ENTER integrator.F
 STEP NUMBER                  =           16
 CPU TIME [s]                 =   0.19773575477302074       0.21766642399597913     

 *******************************************************************************
 ENSEMBLE TYPE                =                                              NVE
 STEP NUMBER                  =                                               16
 TIME [fs]                    =                                         1.600000
 CONSERVED QUANTITY [hartree] =                               0.485277162634E+01

                                              INSTANTANEOUS             AVERAGES
 CPU TIME [s]                 =                        0.20                 0.22
 ENERGY DRIFT PER ATOM [K]    =         -0.339010214928E-01  -0.356235225758E-01
 POTENTIAL ENERGY[hartree]    =          0.227110860118E+01   0.229146157796E+01
 KINETIC ENERGY [hartree]     =          0.258166302516E+01   0.256130375198E+01
 TEMPERATURE [K]              =                     604.541              599.774
 *******************************************************************************

 FOBSH| *** OFF-DIAGONAL GRADIENT CALCULATION
 FOBSH| Put former active state           1 in new active state           1
 FOBSH| ACTIVE STATE =            1

 ENERGY| Total FORCE_EVAL ( MIXED ) energy (a.u.):             2.284752546714458

 FOBSH| CASE1: no hop and no trivial crossing
 ENTER integrator.F
 STEP NUMBER                  =           17
 CPU TIME [s]                 =   0.18891838006675243       0.21597536258837755     

 *******************************************************************************
 ENSEMBLE TYPE                =                                              NVE
 STEP NUMBER                  =                                               17
 TIME [fs]                    =                                         1.700000
 CONSERVED QUANTITY [hartree] =                               0.485278648490E+01

                                              INSTANTANEOUS             AVERAGES
 CPU TIME [s]                 =                        0.19                 0.22
 ENERGY DRIFT PER ATOM [K]    =         -0.286877349014E-01  -0.352155350656E-01
 POTENTIAL ENERGY[hartree]    =          0.228475254671E+01   0.229106692906E+01
 KINETIC ENERGY [hartree]     =          0.256803393819E+01   0.256169964529E+01
 TEMPERATURE [K]              =                     601.350              599.866
 *******************************************************************************

 FOBSH| *** OFF-DIAGONAL GRADIENT CALCULATION
 FOBSH| Put former active state           1 in new active state           1
 FOBSH| ACTIVE STATE =            1

 ENERGY| Total FORCE_EVAL ( MIXED ) energy (a.u.):             2.300686146523138

 FOBSH| CASE1: no hop and no trivial crossing
 ENTER integrator.F
 STEP NUMBER                  =           18
 CPU TIME [s]                 =   0.19522171095013618       0.21482238194180855     

 *******************************************************************************
 ENSEMBLE TYPE                =                                              NVE
 STEP NUMBER                  =                                               18
 TIME [fs]                    =                                         1.800000
 CONSERVED QUANTITY [hartree] =                               0.485280329037E+01

                                              INSTANTANEOUS             AVERAGES
 CPU TIME [s]                 =                        0.20                 0.21
 ENERGY DRIFT PER ATOM [K]    =         -0.227913560583E-01  -0.345253028985E-01
 POTENTIAL ENERGY[hartree]    =          0.230068614652E+01   0.229160133003E+01
 KINETIC ENERGY [hartree]     =          0.255211714385E+01   0.256116728410E+01
 TEMPERATURE [K]              =                     597.622              599.742
 *******************************************************************************

 FOBSH| *** OFF-DIAGONAL GRADIENT CALCULATION
 FOBSH| Put former active state           1 in new active state           1
 FOBSH| ACTIVE STATE =            1

 ENERGY| Total FORCE_EVAL ( MIXED ) energy (a.u.):             2.318637130768770

 FOBSH| CASE1: no hop and no trivial crossing
 ENTER integrator.F
 STEP NUMBER                  =           19
 CPU TIME [s]                 =   0.20654154010117054       0.21438654816072233     

 *******************************************************************************
 ENSEMBLE TYPE                =                                              NVE
 STEP NUMBER                  =                                               19
 TIME [fs]                    =                                         1.900000
 CONSERVED QUANTITY [hartree] =                               0.485282181676E+01

                                              INSTANTANEOUS             AVERAGES
 CPU TIME [s]                 =                        0.21                 0.21
 ENERGY DRIFT PER ATOM [K]    =         -0.162911756951E-01  -0.335656119930E-01
 POTENTIAL ENERGY[hartree]    =          0.231863713077E+01   0.229302426692E+01
 KINETIC ENERGY [hartree]     =          0.253418468599E+01   0.255974714735E+01
 TEMPERATURE [K]              =                     593.423              599.409
 *******************************************************************************

 FOBSH| *** OFF-DIAGONAL GRADIENT CALCULATION
 FOBSH| Put former active state           1 in new active state           1
 FOBSH| ACTIVE STATE =            1

 ENERGY| Total FORCE_EVAL ( MIXED ) energy (a.u.):             2.338305717728423

 FOBSH| CASE1: no hop and no trivial crossing
 ENTER integrator.F
 STEP NUMBER                  =           20
 CPU TIME [s]                 =   0.19636156037449837       0.21348529877141115     

 *******************************************************************************
 ENSEMBLE TYPE                =                                              NVE
 STEP NUMBER                  =                                               20
 TIME [fs]                    =                                         2.000000
 CONSERVED QUANTITY [hartree] =                               0.485284179708E+01

                                              INSTANTANEOUS             AVERAGES
 CPU TIME [s]                 =                        0.20                 0.21
 ENERGY DRIFT PER ATOM [K]    =         -0.928086498934E-02  -0.323513746429E-01
 POTENTIAL ENERGY[hartree]    =          0.233830571773E+01   0.229528833946E+01
 KINETIC ENERGY [hartree]     =          0.251453607935E+01   0.255748659395E+01
 TEMPERATURE [K]              =                     588.822              598.880
 *******************************************************************************

 FOBSH| *** OFF-DIAGONAL GRADIENT CALCULATION
 FOBSH| Put former active state           1 in new active state           1
 FOBSH| ACTIVE STATE =            1

 ENERGY| Total FORCE_EVAL ( MIXED ) energy (a.u.):             2.359368760025448

 FOBSH| CASE1: no hop and no trivial crossing
 ENTER integrator.F
 STEP NUMBER                  =           21
 CPU TIME [s]                 =   0.18058417178690434       0.21191857843881556     

 *******************************************************************************
 ENSEMBLE TYPE                =                                              NVE
 STEP NUMBER                  =                                               21
 TIME [fs]                    =                                         2.100000
 CONSERVED QUANTITY [hartree] =                               0.485286296173E+01

                                              INSTANTANEOUS             AVERAGES
 CPU TIME [s]                 =                        0.18                 0.21
 ENERGY DRIFT PER ATOM [K]    =         -0.185502029799E-02  -0.308991672931E-01
 POTENTIAL ENERGY[hartree]    =          0.235936876003E+01   0.229833978805E+01
 KINETIC ENERGY [hartree]     =          0.249349420171E+01   0.255443933718E+01
 TEMPERATURE [K]              =                     583.895              598.166
 *******************************************************************************

 FOBSH| *** OFF-DIAGONAL GRADIENT CALCULATION
 FOBSH| Put former active state           1 in new active state           1
 FOBSH| ACTIVE STATE =            1

 ENERGY| Total FORCE_EVAL ( MIXED ) energy (a.u.):             2.381484145992072

 FOBSH| CASE1: no hop and no trivial crossing
 ENTER integrator.F
 STEP NUMBER                  =           22
 CPU TIME [s]                 =   0.19827520102262497       0.21129842491989784     

 *******************************************************************************
 ENSEMBLE TYPE                =                                              NVE
 STEP NUMBER                  =                                               22
 TIME [fs]                    =                                         2.200000
 CONSERVED QUANTITY [hartree] =                               0.485288502388E+01

                                              INSTANTANEOUS             AVERAGES
 CPU TIME [s]                 =                        0.20                 0.21
 ENERGY DRIFT PER ATOM [K]    =          0.588572110528E-02  -0.292271269114E-01
 POTENTIAL ENERGY[hartree]    =          0.238148414599E+01   0.230211907705E+01
 KINETIC ENERGY [hartree]     =          0.247140087789E+01   0.255066486176E+01
 TEMPERATURE [K]              =                     578.721              597.282
 *******************************************************************************

 FOBSH| *** OFF-DIAGONAL GRADIENT CALCULATION
 FOBSH| Put former active state           1 in new active state           1
 FOBSH| ACTIVE STATE =            1

 ENERGY| Total FORCE_EVAL ( MIXED ) energy (a.u.):             2.404295426389447

 FOBSH| CASE1: no hop and no trivial crossing
 ENTER integrator.F
 STEP NUMBER                  =           23
 CPU TIME [s]                 =   0.19776659831404686       0.21071008463268689     

 *******************************************************************************
 ENSEMBLE TYPE                =                                              NVE
 STEP NUMBER                  =                                               23
 TIME [fs]                    =                                         2.300000
 CONSERVED QUANTITY [hartree] =                               0.485290769219E+01

                                              INSTANTANEOUS             AVERAGES
 CPU TIME [s]                 =                        0.20                 0.21
 ENERGY DRIFT PER ATOM [K]    =          0.138391394112E-01  -0.273546805495E-01
 POTENTIAL ENERGY[hartree]    =          0.240429542639E+01   0.230656152702E+01
 KINETIC ENERGY [hartree]     =          0.244861226580E+01   0.254622779237E+01
 TEMPERATURE [K]              =                     573.385              596.243
 *******************************************************************************

 FOBSH| *** OFF-DIAGONAL GRADIENT CALCULATION
 FOBSH| Put former active state           1 in new active state           1
 FOBSH| ACTIVE STATE =            1

 ENERGY| Total FORCE_EVAL ( MIXED ) energy (a.u.):             2.427436564788010

 FOBSH| CASE1: no hop and no trivial crossing
 ENTER integrator.F
 STEP NUMBER                  =           24
 CPU TIME [s]                 =   0.19220316410064697       0.20993896294385189     

 *******************************************************************************
 ENSEMBLE TYPE                =                                              NVE
 STEP NUMBER                  =                                               24
 TIME [fs]                    =                                         2.400000
 CONSERVED QUANTITY [hartree] =                               0.485293064107E+01

                                              INSTANTANEOUS             AVERAGES
 CPU TIME [s]                 =                        0.19                 0.21
 ENERGY DRIFT PER ATOM [K]    =          0.218910007148E-01  -0.253027771635E-01
 POTENTIAL ENERGY[hartree]    =          0.242743656479E+01   0.231159798693E+01
 KINETIC ENERGY [hartree]     =          0.242549407628E+01   0.254119722086E+01
 TEMPERATURE [K]              =                     567.971              595.065
 *******************************************************************************

 FOBSH| *** OFF-DIAGONAL GRADIENT CALCULATION
 FOBSH| Put former active state           1 in new active state           1
 FOBSH| ACTIVE STATE =            1

 ENERGY| Total FORCE_EVAL ( MIXED ) energy (a.u.):             2.450536940707708

 FOBSH| CASE1: no hop and no trivial crossing
 ENTER integrator.F
 STEP NUMBER                  =           25
 CPU TIME [s]                 =   0.18437371216714382       0.20891635291278354     

 *******************************************************************************
 ENSEMBLE TYPE                =                                              NVE
 STEP NUMBER                  =                                               25
 TIME [fs]                    =                                         2.500000
 CONSERVED QUANTITY [hartree] =                               0.485295355598E+01

                                              INSTANTANEOUS             AVERAGES
 CPU TIME [s]                 =                        0.18                 0.21
 ENERGY DRIFT PER ATOM [K]    =          0.299309429866E-01  -0.230934283575E-01
 POTENTIAL ENERGY[hartree]    =          0.245053694071E+01   0.231715554508E+01
 KINETIC ENERGY [hartree]     =          0.240241661527E+01   0.253564599664E+01
 TEMPERATURE [K]              =                     562.567              593.765
 *******************************************************************************

 FOBSH| *** OFF-DIAGONAL GRADIENT CALCULATION
 FOBSH| Put former active state           1 in new active state           1
 FOBSH| ACTIVE STATE =            1

 ENERGY| Total FORCE_EVAL ( MIXED ) energy (a.u.):             2.473226417523679

 FOBSH| CASE1: no hop and no trivial crossing
 ENTER integrator.F
 STEP NUMBER                  =           26
 CPU TIME [s]                 =   0.19681737385690212       0.20845100756448043     

 *******************************************************************************
 ENSEMBLE TYPE                =                                              NVE
 STEP NUMBER                  =                                               26
 TIME [fs]                    =                                         2.600000
 CONSERVED QUANTITY [hartree] =                               0.485297612232E+01

                                              INSTANTANEOUS             AVERAGES
 CPU TIME [s]                 =                        0.20                 0.21
 ENERGY DRIFT PER ATOM [K]    =          0.378485865129E-01  -0.207495047086E-01
 POTENTIAL ENERGY[hartree]    =          0.247322641752E+01   0.232315827094E+01
 KINETIC ENERGY [hartree]     =          0.237974970480E+01   0.252964998542E+01
 TEMPERATURE [K]              =                     557.260              592.361
 *******************************************************************************

 FOBSH| *** OFF-DIAGONAL GRADIENT CALCULATION
 FOBSH| Put former active state           1 in new active state           1
 FOBSH| ACTIVE STATE =            1

 ENERGY| Total FORCE_EVAL ( MIXED ) energy (a.u.):             2.495140348219880

 FOBSH| CASE1: no hop and no trivial crossing
 ENTER integrator.F
 STEP NUMBER                  =           27
 CPU TIME [s]                 =   0.17995703034102917       0.20739567507472295     

 *******************************************************************************
 ENSEMBLE TYPE                =                                              NVE
 STEP NUMBER                  =                                               27
 TIME [fs]                    =                                         2.700000
 CONSERVED QUANTITY [hartree] =                               0.485299804704E+01

                                              INSTANTANEOUS             AVERAGES
 CPU TIME [s]                 =                        0.18                 0.21
 ENERGY DRIFT PER ATOM [K]    =          0.455411102901E-01  -0.182942967457E-01
 POTENTIAL ENERGY[hartree]    =          0.249514034822E+01   0.232952797751E+01
 KINETIC ENERGY [hartree]     =          0.235785769882E+01   0.252328730814E+01
 TEMPERATURE [K]              =                     552.133              590.871
 *******************************************************************************

 FOBSH| *** OFF-DIAGONAL GRADIENT CALCULATION
 FOBSH| Put former active state           1 in new active state           1
 FOBSH| ACTIVE STATE =            1

 ENERGY| Total FORCE_EVAL ( MIXED ) energy (a.u.):             2.515924392765356

 FOBSH| CASE1: no hop and no trivial crossing
 ENTER integrator.F
 STEP NUMBER                  =           28
 CPU TIME [s]                 =   0.18486388400197029       0.20659096825069606     

 *******************************************************************************
 ENSEMBLE TYPE                =                                              NVE
 STEP NUMBER                  =                                               28
 TIME [fs]                    =                                         2.800000
 CONSERVED QUANTITY [hartree] =                               0.485301902841E+01

                                              INSTANTANEOUS             AVERAGES
 CPU TIME [s]                 =                        0.18                 0.21
 ENERGY DRIFT PER ATOM [K]    =          0.529026480601E-01  -0.157515487169E-01
 POTENTIAL ENERGY[hartree]    =          0.251592439277E+01   0.233618499234E+01
 KINETIC ENERGY [hartree]     =          0.233709463565E+01   0.251663756983E+01
 TEMPERATURE [K]              =                     547.271              589.314
 *******************************************************************************

 FOBSH| *** OFF-DIAGONAL GRADIENT CALCULATION
 FOBSH| Put former active state           1 in new active state           1
 FOBSH| ACTIVE STATE =            1

 ENERGY| Total FORCE_EVAL ( MIXED ) energy (a.u.):             2.535239341571163

 FOBSH| CASE1: no hop and no trivial crossing
 ENTER integrator.F
 STEP NUMBER                  =           29
 CPU TIME [s]                 =   0.15957761183381081       0.20496981802942416     

 *******************************************************************************
 ENSEMBLE TYPE                =                                              NVE
 STEP NUMBER                  =                                               29
 TIME [fs]                    =                                         2.900000
 CONSERVED QUANTITY [hartree] =                               0.485303877668E+01

                                              INSTANTANEOUS             AVERAGES
 CPU TIME [s]                 =                        0.16                 0.20
 ENERGY DRIFT PER ATOM [K]    =          0.598315389174E-01  -0.131452353502E-01
 POTENTIAL ENERGY[hartree]    =          0.253523934157E+01   0.234304893542E+01
 KINETIC ENERGY [hartree]     =          0.231779943511E+01   0.250978108243E+01
 TEMPERATURE [K]              =                     542.753              587.709
 *******************************************************************************

 FOBSH| *** OFF-DIAGONAL GRADIENT CALCULATION
 FOBSH| Put former active state           1 in new active state           1
 FOBSH| ACTIVE STATE =            1

 ENERGY| Total FORCE_EVAL ( MIXED ) energy (a.u.):             2.552765737659670

 FOBSH| CASE1: no hop and no trivial crossing
 ENTER integrator.F
 STEP NUMBER                  =           30
 CPU TIME [s]                 =   0.16448036581277847       0.20362016962220261     

 *******************************************************************************
 ENSEMBLE TYPE                =                                              NVE
 STEP NUMBER                  =                                               30
 TIME [fs]                    =                                         3.000000
 CONSERVED QUANTITY [hartree] =                               0.485305702787E+01

                                              INSTANTANEOUS             AVERAGES
 CPU TIME [s]                 =                        0.16                 0.20
 ENERGY DRIFT PER ATOM [K]    =          0.662351649914E-01  -0.104992220055E-01
 POTENTIAL ENERGY[hartree]    =          0.255276573766E+01   0.235003949549E+01
 KINETIC ENERGY [hartree]     =          0.230029129021E+01   0.250279808935E+01
 TEMPERATURE [K]              =                     538.653              586.074
 *******************************************************************************

 FOBSH| *** OFF-DIAGONAL GRADIENT CALCULATION
 FOBSH! Reorgering: for state           5  we stay in with overlap  0.62201628003448683       instead of goind to            6 with overlap -0.77864560029124841     
 FOBSH! Reorgering: for state           6  we stay in with overlap  0.62177222428841872       instead of goind to            5 with overlap  0.78245246168449389     
 FOBSH| New map:            1           2           3           4           0           0           7           8
 FOBSH! New map again:           1           2           3           4           0           0           7           8
 FOBSH| Put former active state           1 in new active state           1
 FOBSH| ACTIVE STATE =            1

 ENERGY| Total FORCE_EVAL ( MIXED ) energy (a.u.):             2.568208161753813

 FOBSH| CASE1: no hop and no trivial crossing
 ENTER integrator.F
 STEP NUMBER                  =           31
 CPU TIME [s]                 =   0.15600337833166122       0.20208414409670128     

 *******************************************************************************
 ENSEMBLE TYPE                =                                              NVE
 STEP NUMBER                  =                                               31
 TIME [fs]                    =                                         3.100000
 CONSERVED QUANTITY [hartree] =                               0.485307351249E+01

                                              INSTANTANEOUS             AVERAGES
 CPU TIME [s]                 =                        0.16                 0.20
 ENERGY DRIFT PER ATOM [K]    =          0.720189692240E-01  -0.783734486908E-02
 POTENTIAL ENERGY[hartree]    =          0.256820816175E+01   0.235707719440E+01
 KINETIC ENERGY [hartree]     =          0.228486535073E+01   0.249576800101E+01
 TEMPERATURE [K]              =                     535.041              584.427
 *******************************************************************************

 FOBSH| *** OFF-DIAGONAL GRADIENT CALCULATION
 FOBSH| New map:            1           2           3           4           0           0           7           8
 FOBSH! New map again:           1           2           3           4           0           0           7           8
 FOBSH| Put former active state           1 in new active state           1
 FOBSH| ACTIVE STATE =            1

 ENERGY| Total FORCE_EVAL ( MIXED ) energy (a.u.):             2.581299374686465

 FOBSH| CASE1: no hop and no trivial crossing
 ENTER integrator.F
 STEP NUMBER                  =           32
 CPU TIME [s]                 =   0.15549818798899651       0.20062833296833552     

 *******************************************************************************
 ENSEMBLE TYPE                =                                              NVE
 STEP NUMBER                  =                                               32
 TIME [fs]                    =                                         3.200000
 CONSERVED QUANTITY [hartree] =                               0.485308801842E+01

                                              INSTANTANEOUS             AVERAGES
 CPU TIME [s]                 =                        0.16                 0.20
 ENERGY DRIFT PER ATOM [K]    =          0.771085314623E-01  -0.518278623372E-02
 POTENTIAL ENERGY[hartree]    =          0.258129937469E+01   0.236408413754E+01
 KINETIC ENERGY [hartree]     =          0.227178864373E+01   0.248876864610E+01
 TEMPERATURE [K]              =                     531.979              582.788
 *******************************************************************************

 FOBSH| *** OFF-DIAGONAL GRADIENT CALCULATION
 FOBSH| Put former active state           1 in new active state           1
 FOBSH| ACTIVE STATE =            1

 ENERGY| Total FORCE_EVAL ( MIXED ) energy (a.u.):             2.591803918255900

 FOBSH| CASE1: no hop and no trivial crossing
 ENTER integrator.F
 STEP NUMBER                  =           33
 CPU TIME [s]                 =   0.16620950028300285       0.19958533803847694     

 *******************************************************************************
 ENSEMBLE TYPE                =                                              NVE
 STEP NUMBER                  =                                               33
 TIME [fs]                    =                                         3.300000
 CONSERVED QUANTITY [hartree] =                               0.485310034478E+01

                                              INSTANTANEOUS             AVERAGES
 CPU TIME [s]                 =                        0.17                 0.20
 ENERGY DRIFT PER ATOM [K]    =          0.814333687957E-01  -0.255805426313E-02
 POTENTIAL ENERGY[hartree]    =          0.259180391826E+01   0.237098473695E+01
 KINETIC ENERGY [hartree]     =          0.226129642653E+01   0.248187554853E+01
 TEMPERATURE [K]              =                     529.522              581.174
 *******************************************************************************

 FOBSH| *** OFF-DIAGONAL GRADIENT CALCULATION
 FOBSH| Put former active state           1 in new active state           1
 FOBSH| ACTIVE STATE =            1

 ENERGY| Total FORCE_EVAL ( MIXED ) energy (a.u.):             2.599521319987061

 FOBSH| CASE1: no hop and no trivial crossing
 ENTER integrator.F
 STEP NUMBER                  =           34
 CPU TIME [s]                 =   0.16622402705252171       0.19860412300947827     

 *******************************************************************************
 ENSEMBLE TYPE                =                                              NVE
 STEP NUMBER                  =                                               34
 TIME [fs]                    =                                         3.400000
 CONSERVED QUANTITY [hartree] =                               0.485311030940E+01

                                              INSTANTANEOUS             AVERAGES
 CPU TIME [s]                 =                        0.17                 0.20
 ENERGY DRIFT PER ATOM [K]    =          0.849295615739E-01   0.151109085441E-04
 POTENTIAL ENERGY[hartree]    =          0.259952131999E+01   0.237770640116E+01
 KINETIC ENERGY [hartree]     =          0.225358898941E+01   0.247516123797E+01
 TEMPERATURE [K]              =                     527.717              579.602
 *******************************************************************************

 FOBSH| *** OFF-DIAGONAL GRADIENT CALCULATION
 FOBSH| Put former active state           1 in new active state           1
 FOBSH| ACTIVE STATE =            1

 ENERGY| Total FORCE_EVAL ( MIXED ) energy (a.u.):             2.604288907104532

 FOBSH| CASE1: no hop and no trivial crossing
 ENTER integrator.F
 STEP NUMBER                  =           35
 CPU TIME [s]                 =   0.14148266986012459       0.19697208149092529     

 *******************************************************************************
 ENSEMBLE TYPE                =                                              NVE
 STEP NUMBER                  =                                               35
 TIME [fs]                    =                                         3.500000
 CONSERVED QUANTITY [hartree] =                               0.485311777354E+01

                                              INSTANTANEOUS             AVERAGES
 CPU TIME [s]                 =                        0.14                 0.20
 ENERGY DRIFT PER ATOM [K]    =          0.875484331317E-01   0.251606297206E-02
 POTENTIAL ENERGY[hartree]    =          0.260428890710E+01   0.238418018704E+01
 KINETIC ENERGY [hartree]     =          0.224882886643E+01   0.246869459878E+01
 TEMPERATURE [K]              =                     526.602              578.088
 *******************************************************************************

 FOBSH| *** OFF-DIAGONAL GRADIENT CALCULATION
 FOBSH| Put former active state           1 in new active state           1
 FOBSH| ACTIVE STATE =            1

 ENERGY| Total FORCE_EVAL ( MIXED ) energy (a.u.):             2.605984080328337

 FOBSH| CASE1: no hop and no trivial crossing
 ENTER integrator.F
 STEP NUMBER                  =           36
 CPU TIME [s]                 =   0.16458482481539249       0.19607243547216049     

 *******************************************************************************
 ENSEMBLE TYPE                =                                              NVE
 STEP NUMBER                  =                                               36
 TIME [fs]                    =                                         3.600000
 CONSERVED QUANTITY [hartree] =                               0.485312262477E+01

                                              INSTANTANEOUS             AVERAGES
 CPU TIME [s]                 =                        0.16                 0.20
 ENERGY DRIFT PER ATOM [K]    =          0.892505408033E-01   0.492535402293E-02
 POTENTIAL ENERGY[hartree]    =          0.260598408033E+01   0.239034140630E+01
 KINETIC ENERGY [hartree]     =          0.224713854444E+01   0.246254026394E+01
 TEMPERATURE [K]              =                     526.206              576.646
 *******************************************************************************

 FOBSH| *** OFF-DIAGONAL GRADIENT CALCULATION
 FOBSH| Put former active state           1 in new active state           1
 FOBSH| ACTIVE STATE =            1

 ENERGY| Total FORCE_EVAL ( MIXED ) energy (a.u.):             2.604526038785078

 FOBSH| CASE1: no hop and no trivial crossing
 ENTER integrator.F
 STEP NUMBER                  =           37
 CPU TIME [s]                 =   0.14176884293556213       0.19460477080900920     

 *******************************************************************************
 ENSEMBLE TYPE                =                                              NVE
 STEP NUMBER                  =                                               37
 TIME [fs]                    =                                         3.700000
 CONSERVED QUANTITY [hartree] =                               0.485312478171E+01

                                              INSTANTANEOUS             AVERAGES
 CPU TIME [s]                 =                        0.14                 0.19
 ENERGY DRIFT PER ATOM [K]    =          0.900073244942E-01   0.722486673837E-02
 POTENTIAL ENERGY[hartree]    =          0.260452603879E+01   0.239613018015E+01
 KINETIC ENERGY [hartree]     =          0.224859874292E+01   0.245675806067E+01
 TEMPERATURE [K]              =                     526.548              575.292
 *******************************************************************************

 FOBSH| *** OFF-DIAGONAL GRADIENT CALCULATION
 FOBSH| Put former active state           1 in new active state           1
 FOBSH| ACTIVE STATE =            1

 ENERGY| Total FORCE_EVAL ( MIXED ) energy (a.u.):             2.599877013838329

 FOBSH| CASE1: no hop and no trivial crossing
 ENTER integrator.F
 STEP NUMBER                  =           38
 CPU TIME [s]                 =   0.19813207536935806       0.19469759461322889     

 *******************************************************************************
 ENSEMBLE TYPE                =                                              NVE
 STEP NUMBER                  =                                               38
 TIME [fs]                    =                                         3.800000
 CONSERVED QUANTITY [hartree] =                               0.485312423590E+01

                                              INSTANTANEOUS             AVERAGES
 CPU TIME [s]                 =                        0.20                 0.19
 ENERGY DRIFT PER ATOM [K]    =          0.898158241440E-01   0.939831298589E-02
 POTENTIAL ENERGY[hartree]    =          0.259987701384E+01   0.240149193893E+01
 KINETIC ENERGY [hartree]     =          0.225324722207E+01   0.245140251229E+01
 TEMPERATURE [K]              =                     527.637              574.038
 *******************************************************************************

 FOBSH| *** OFF-DIAGONAL GRADIENT CALCULATION
 FOBSH| Put former active state           1 in new active state           1
 FOBSH| ACTIVE STATE =            1

 ENERGY| Total FORCE_EVAL ( MIXED ) energy (a.u.):             2.592042843572254

 FOBSH| CASE1: no hop and no trivial crossing
 ENTER integrator.F
 STEP NUMBER                  =           39
 CPU TIME [s]                 =   0.16980471275746822       0.19405931559128628     

 *******************************************************************************
 ENSEMBLE TYPE                =                                              NVE
 STEP NUMBER                  =                                               39
 TIME [fs]                    =                                         3.900000
 CONSERVED QUANTITY [hartree] =                               0.485312096020E+01

                                              INSTANTANEOUS             AVERAGES
 CPU TIME [s]                 =                        0.17                 0.19
 ENERGY DRIFT PER ATOM [K]    =          0.886665092697E-01   0.114308308393E-01
 POTENTIAL ENERGY[hartree]    =          0.259204284357E+01   0.240637785957E+01
 KINETIC ENERGY [hartree]     =          0.226107811663E+01   0.244652239958E+01
 TEMPERATURE [K]              =                     529.471              572.896
 *******************************************************************************

 FOBSH| *** OFF-DIAGONAL GRADIENT CALCULATION
 FOBSH| Put former active state           1 in new active state           1
 FOBSH| ACTIVE STATE =            1

 ENERGY| Total FORCE_EVAL ( MIXED ) energy (a.u.):             2.581073111040592

 FOBSH| CASE1: no hop and no trivial crossing
 ENTER integrator.F
 STEP NUMBER                  =           40
 CPU TIME [s]                 =   0.17682864703238010       0.19362854887731362     

 *******************************************************************************
 ENSEMBLE TYPE                =                                              NVE
 STEP NUMBER                  =                                               40
 TIME [fs]                    =                                         4.000000
 CONSERVED QUANTITY [hartree] =                               0.485311499469E+01

                                              INSTANTANEOUS             AVERAGES
 CPU TIME [s]                 =                        0.18                 0.19
 ENERGY DRIFT PER ATOM [K]    =          0.865734449297E-01   0.133093961916E-01
 POTENTIAL ENERGY[hartree]    =          0.258107311104E+01   0.241074524085E+01
 KINETIC ENERGY [hartree]     =          0.227204188365E+01   0.244216038668E+01
 TEMPERATURE [K]              =                     532.038              571.874
 *******************************************************************************

 FOBSH| *** OFF-DIAGONAL GRADIENT CALCULATION
 FOBSH| Put former active state           1 in new active state           1
 FOBSH| ACTIVE STATE =            1

 ENERGY| Total FORCE_EVAL ( MIXED ) energy (a.u.):             2.567060595753837

 FOBSH| CASE1: no hop and no trivial crossing
 ENTER integrator.F
 STEP NUMBER                  =           41
 CPU TIME [s]                 =   0.19972236454486847       0.19377717852774179     

 *******************************************************************************
 ENSEMBLE TYPE                =                                              NVE
 STEP NUMBER                  =                                               41
 TIME [fs]                    =                                         4.100000
 CONSERVED QUANTITY [hartree] =                               0.485310640608E+01

                                              INSTANTANEOUS             AVERAGES
 CPU TIME [s]                 =                        0.20                 0.19
 ENERGY DRIFT PER ATOM [K]    =          0.835600389789E-01   0.150228265035E-01
 POTENTIAL ENERGY[hartree]    =          0.256706059575E+01   0.241455781048E+01
 KINETIC ENERGY [hartree]     =          0.228604581033E+01   0.243835271409E+01
 TEMPERATURE [K]              =                     535.317              570.983
 *******************************************************************************

 FOBSH| *** OFF-DIAGONAL GRADIENT CALCULATION
 FOBSH| Put former active state           1 in new active state           1
 FOBSH| ACTIVE STATE =            1

 ENERGY| Total FORCE_EVAL ( MIXED ) energy (a.u.):             2.550140231077168

 FOBSH| CASE1: no hop and no trivial crossing
 ENTER integrator.F
 STEP NUMBER                  =           42
 CPU TIME [s]                 =   0.18247440829873085       0.19350806495086059     

 *******************************************************************************
 ENSEMBLE TYPE                =                                              NVE
 STEP NUMBER                  =                                               42
 TIME [fs]                    =                                         4.200000
 CONSERVED QUANTITY [hartree] =                               0.485309529005E+01

                                              INSTANTANEOUS             AVERAGES
 CPU TIME [s]                 =                        0.18                 0.19
 ENERGY DRIFT PER ATOM [K]    =          0.796598603347E-01   0.165618034994E-01
 POTENTIAL ENERGY[hartree]    =          0.255014023108E+01   0.241778596336E+01
 KINETIC ENERGY [hartree]     =          0.230295505897E+01   0.243512896039E+01
 TEMPERATURE [K]              =                     539.277              570.228
 *******************************************************************************

 FOBSH| *** OFF-DIAGONAL GRADIENT CALCULATION
 FOBSH| Reordering: for state           3 old index was           4 with overlap -0.99964035479700974      and former  -1.5382610792013085E-002
 FOBSH| Reordering: for state           4 old index was           3 with overlap  0.99985381464988476      and former  -1.5358732138528975E-002
 FOBSH| New map:            1           2           4           3           5           6           7           8
 FOBSH| Put former active state           1 in new active state           1
 FOBSH| ACTIVE STATE =            1

 ENERGY| Total FORCE_EVAL ( MIXED ) energy (a.u.):             2.530487496173199

 FOBSH| CASE1: no hop and no trivial crossing
 ENTER integrator.F
 STEP NUMBER                  =           43
 CPU TIME [s]                 =   0.20289316959679127       0.19372632319844038     

 *******************************************************************************
 ENSEMBLE TYPE                =                                              NVE
 STEP NUMBER                  =                                               43
 TIME [fs]                    =                                         4.300000
 CONSERVED QUANTITY [hartree] =                               0.485308178995E+01

                                              INSTANTANEOUS             AVERAGES
 CPU TIME [s]                 =                        0.20                 0.19
 ENERGY DRIFT PER ATOM [K]    =          0.749232052946E-01   0.179190454017E-01
 POTENTIAL ENERGY[hartree]    =          0.253048749617E+01   0.242040692924E+01
 KINETIC ENERGY [hartree]     =          0.232259429377E+01   0.243251187512E+01
 TEMPERATURE [K]              =                     543.876              569.615
 *******************************************************************************

 FOBSH| *** OFF-DIAGONAL GRADIENT CALCULATION
 FOBSH| Put former active state           1 in new active state           1
 FOBSH| ACTIVE STATE =            1

 ENERGY| Total FORCE_EVAL ( MIXED ) energy (a.u.):             2.508316162189580

 FOBSH| CASE1: no hop and no trivial crossing
 ENTER integrator.F
 STEP NUMBER                  =           44
 CPU TIME [s]                 =   0.20042406208813190       0.19387854453684247     

 *******************************************************************************
 ENSEMBLE TYPE                =                                              NVE
 STEP NUMBER                  =                                               44
 TIME [fs]                    =                                         4.400000
 CONSERVED QUANTITY [hartree] =                               0.485306606781E+01

                                              INSTANTANEOUS             AVERAGES
 CPU TIME [s]                 =                        0.20                 0.19
 ENERGY DRIFT PER ATOM [K]    =          0.694069257925E-01   0.190892245015E-01
 POTENTIAL ENERGY[hartree]    =          0.250831616219E+01   0.242240486635E+01
 KINETIC ENERGY [hartree]     =          0.234474990562E+01   0.243051728491E+01
 TEMPERATURE [K]              =                     549.064              569.148
 *******************************************************************************

 FOBSH| *** OFF-DIAGONAL GRADIENT CALCULATION
 FOBSH| Put former active state           1 in new active state           1
 FOBSH| ACTIVE STATE =            1

 ENERGY| Total FORCE_EVAL ( MIXED ) energy (a.u.):             2.483875638007429

 FOBSH| CASE1: no hop and no trivial crossing
 ENTER integrator.F
 STEP NUMBER                  =           45
 CPU TIME [s]                 =    8.8641263544559479E-002  0.19153993829256952     

 *******************************************************************************
 ENSEMBLE TYPE                =                                              NVE
 STEP NUMBER                  =                                               45
 TIME [fs]                    =                                         4.500000
 CONSERVED QUANTITY [hartree] =                               0.485304832267E+01

                                              INSTANTANEOUS             AVERAGES
 CPU TIME [s]                 =                        0.09                 0.19
 ENERGY DRIFT PER ATOM [K]    =          0.631808511881E-01   0.200690384278E-01
 POTENTIAL ENERGY[hartree]    =          0.248387563801E+01   0.242377088350E+01
 KINETIC ENERGY [hartree]     =          0.236917268466E+01   0.242915407157E+01
 TEMPERATURE [K]              =                     554.783              568.829
 *******************************************************************************

 FOBSH| *** OFF-DIAGONAL GRADIENT CALCULATION
 FOBSH| Put former active state           1 in new active state           1
 FOBSH| ACTIVE STATE =            1

 ENERGY| Total FORCE_EVAL ( MIXED ) energy (a.u.):             2.457447885043198

 FOBSH| CASE1: no hop and no trivial crossing
 ENTER integrator.F
 STEP NUMBER                  =           46
 CPU TIME [s]                 =   0.15033904090523720       0.19064426661023620     

 *******************************************************************************
 ENSEMBLE TYPE                =                                              NVE
 STEP NUMBER                  =                                               46
 TIME [fs]                    =                                         4.600000
 CONSERVED QUANTITY [hartree] =                               0.485302878600E+01

                                              INSTANTANEOUS             AVERAGES
 CPU TIME [s]                 =                        0.15                 0.19
 ENERGY DRIFT PER ATOM [K]    =          0.563262010328E-01   0.208572376149E-01
 POTENTIAL ENERGY[hartree]    =          0.245744788504E+01   0.242450299223E+01
 KINETIC ENERGY [hartree]     =          0.239558090095E+01   0.242842422003E+01
 TEMPERATURE [K]              =                     560.967              568.658
 *******************************************************************************

 FOBSH| *** OFF-DIAGONAL GRADIENT CALCULATION
 FOBSH| Put former active state           1 in new active state           1
 FOBSH| ACTIVE STATE =            1

 ENERGY| Total FORCE_EVAL ( MIXED ) energy (a.u.):             2.429343796130746

 FOBSH| CASE1: no hop and no trivial crossing
 ENTER integrator.F
 STEP NUMBER                  =           47
 CPU TIME [s]                 =   0.13890898786485195       0.18954351599863226     

 *******************************************************************************
 ENSEMBLE TYPE                =                                              NVE
 STEP NUMBER                  =                                               47
 TIME [fs]                    =                                         4.700000
 CONSERVED QUANTITY [hartree] =                               0.485300769499E+01

                                              INSTANTANEOUS             AVERAGES
 CPU TIME [s]                 =                        0.14                 0.19
 ENERGY DRIFT PER ATOM [K]    =          0.489261942368E-01   0.214544494579E-01
 POTENTIAL ENERGY[hartree]    =          0.242934379613E+01   0.242460598805E+01
 KINETIC ENERGY [hartree]     =          0.242366389886E+01   0.242832293660E+01
 TEMPERATURE [K]              =                     567.543              568.634
 *******************************************************************************

 FOBSH| *** OFF-DIAGONAL GRADIENT CALCULATION
 FOBSH| Put former active state           1 in new active state           1
 FOBSH| ACTIVE STATE =            1

 ENERGY| Total FORCE_EVAL ( MIXED ) energy (a.u.):             2.399899261879371

 FOBSH| CASE1: no hop and no trivial crossing
 ENTER integrator.F
 STEP NUMBER                  =           48
 CPU TIME [s]                 =   0.13797191902995110       0.18846910772845141     

 *******************************************************************************
 ENSEMBLE TYPE                =                                              NVE
 STEP NUMBER                  =                                               48
 TIME [fs]                    =                                         4.800000
 CONSERVED QUANTITY [hartree] =                               0.485298533082E+01

                                              INSTANTANEOUS             AVERAGES
 CPU TIME [s]                 =                        0.14                 0.19
 ENERGY DRIFT PER ATOM [K]    =          0.410794880590E-01   0.218633044288E-01
 POTENTIAL ENERGY[hartree]    =          0.239989926188E+01   0.242409126459E+01
 KINETIC ENERGY [hartree]     =          0.245308606895E+01   0.242883883519E+01
 TEMPERATURE [K]              =                     574.433              568.755
 *******************************************************************************

 FOBSH| *** OFF-DIAGONAL GRADIENT CALCULATION
 FOBSH| Put former active state           1 in new active state           1
 FOBSH| ACTIVE STATE =            1

 ENERGY| Total FORCE_EVAL ( MIXED ) energy (a.u.):             2.369470901617983

 FOBSH| CASE1: no hop and no trivial crossing
 ENTER integrator.F
 STEP NUMBER                  =           49
 CPU TIME [s]                 =    9.8308021202683449E-002  0.18662908555445615     

 *******************************************************************************
 ENSEMBLE TYPE                =                                              NVE
 STEP NUMBER                  =                                               49
 TIME [fs]                    =                                         4.900000
 CONSERVED QUANTITY [hartree] =                               0.485296196974E+01

                                              INSTANTANEOUS             AVERAGES
 CPU TIME [s]                 =                        0.10                 0.19
 ENERGY DRIFT PER ATOM [K]    =          0.328830012866E-01   0.220881962014E-01
 POTENTIAL ENERGY[hartree]    =          0.236947090162E+01   0.242297656331E+01
 KINETIC ENERGY [hartree]     =          0.248349106812E+01   0.242995418689E+01
 TEMPERATURE [K]              =                     581.552              569.016
 *******************************************************************************

 FOBSH| *** OFF-DIAGONAL GRADIENT CALCULATION
 FOBSH| New map:            1           2           3           4           5           6           0           0
 FOBSH! New map again:           1           2           3           4           5           6           0           0
 FOBSH| Put former active state           1 in new active state           1
 FOBSH| ACTIVE STATE =            1

 ENERGY| Total FORCE_EVAL ( MIXED ) energy (a.u.):             2.338431521265600

 FOBSH| CASE1: no hop and no trivial crossing
 ENTER integrator.F
 STEP NUMBER                  =           50
 CPU TIME [s]                 =   0.14958304353058338       0.18588816471397870     

 *******************************************************************************
 ENSEMBLE TYPE                =                                              NVE
 STEP NUMBER                  =                                               50
 TIME [fs]                    =                                         5.000000
 CONSERVED QUANTITY [hartree] =                               0.485293791126E+01

                                              INSTANTANEOUS             AVERAGES
 CPU TIME [s]                 =                        0.15                 0.19
 ENERGY DRIFT PER ATOM [K]    =          0.244418267254E-01   0.221352688119E-01
[...]
 TIME [fs]                    =                                        19.100000
 CONSERVED QUANTITY [hartree] =                               0.485289728208E+01

                                              INSTANTANEOUS             AVERAGES
 CPU TIME [s]                 =                        0.09                 0.14
 ENERGY DRIFT PER ATOM [K]    =          0.101866415231E-01   0.112531864916E-02
 POTENTIAL ENERGY[hartree]    =          0.251497295544E+01   0.238889455122E+01
 KINETIC ENERGY [hartree]     =          0.233792432664E+01   0.246397678868E+01
 TEMPERATURE [K]              =                     547.466              576.983
 *******************************************************************************

 FOBSH| *** OFF-DIAGONAL GRADIENT CALCULATION
 FOBSH| Put former active state           1 in new active state           1
 FOBSH| ACTIVE STATE =            1

 ENERGY| Total FORCE_EVAL ( MIXED ) energy (a.u.):             2.544904287879137

 FOBSH| *** WARNING: Projection to avoid spurious transfer get lambda =    1.0265271957556255      ***
 FOBSH| CASE1: no hop and no trivial crossing
 ENTER integrator.F
 STEP NUMBER                  =          192
 CPU TIME [s]                 =   0.10367754846811295       0.13815181782896022     

 *******************************************************************************
 ENSEMBLE TYPE                =                                              NVE
 STEP NUMBER                  =                                              192
 TIME [fs]                    =                                        19.200000
 CONSERVED QUANTITY [hartree] =                               0.485292109513E+01

                                              INSTANTANEOUS             AVERAGES
 CPU TIME [s]                 =                        0.10                 0.14
 ENERGY DRIFT PER ATOM [K]    =          0.185417044003E-01   0.121602899162E-02
 POTENTIAL ENERGY[hartree]    =          0.254490428788E+01   0.238970710193E+01
 KINETIC ENERGY [hartree]     =          0.230801680725E+01   0.246316449711E+01
 TEMPERATURE [K]              =                     540.462              576.793
 *******************************************************************************

 FOBSH| *** OFF-DIAGONAL GRADIENT CALCULATION
 FOBSH| Put former active state           1 in new active state           1
 FOBSH| ACTIVE STATE =            1

 ENERGY| Total FORCE_EVAL ( MIXED ) energy (a.u.):             2.573965678371281

 FOBSH| *** WARNING: Projection to avoid spurious transfer get lambda =    1.0244006457379644      ***
 FOBSH| CASE1: no hop and no trivial crossing
 ENTER integrator.F
 STEP NUMBER                  =          193
 CPU TIME [s]                 =    7.6600205153226852E-002  0.13783289755602895     

 *******************************************************************************
 ENSEMBLE TYPE                =                                              NVE
 STEP NUMBER                  =                                              193
 TIME [fs]                    =                                        19.300000
 CONSERVED QUANTITY [hartree] =                               0.485294437103E+01

                                              INSTANTANEOUS             AVERAGES
 CPU TIME [s]                 =                        0.08                 0.14
 ENERGY DRIFT PER ATOM [K]    =          0.267083037668E-01   0.134811331688E-02
 POTENTIAL ENERGY[hartree]    =          0.257396567837E+01   0.239066180958E+01
 KINETIC ENERGY [hartree]     =          0.227897869265E+01   0.246221016652E+01
 TEMPERATURE [K]              =                     533.662              576.569
 *******************************************************************************

 FOBSH| *** OFF-DIAGONAL GRADIENT CALCULATION
 FOBSH| Put former active state           1 in new active state           1
 FOBSH| ACTIVE STATE =            1

 ENERGY| Total FORCE_EVAL ( MIXED ) energy (a.u.):             2.601789193365829

 FOBSH| *** WARNING: Projection to avoid spurious transfer get lambda =    1.0223644293692786      ***
 FOBSH| CASE1: no hop and no trivial crossing
 ENTER integrator.F
 STEP NUMBER                  =          194
 CPU TIME [s]                 =    7.7022431418299675E-002  0.13751944154500972     

 *******************************************************************************
 ENSEMBLE TYPE                =                                              NVE
 STEP NUMBER                  =                                              194
 TIME [fs]                    =                                        19.400000
 CONSERVED QUANTITY [hartree] =                               0.485296680913E+01

                                              INSTANTANEOUS             AVERAGES
 CPU TIME [s]                 =                        0.08                 0.14
 ENERGY DRIFT PER ATOM [K]    =          0.345809513066E-01   0.151941660548E-02
 POTENTIAL ENERGY[hartree]    =          0.260178919337E+01   0.239175009507E+01
 KINETIC ENERGY [hartree]     =          0.225117761576E+01   0.246112236987E+01
 TEMPERATURE [K]              =                     527.152              576.314
 *******************************************************************************

 FOBSH| *** OFF-DIAGONAL GRADIENT CALCULATION
 FOBSH| Put former active state           1 in new active state           1
 FOBSH| ACTIVE STATE =            1

 ENERGY| Total FORCE_EVAL ( MIXED ) energy (a.u.):             2.628020087439165

 FOBSH| *** WARNING: Projection to avoid spurious transfer get lambda =    1.0204215195071238      ***
 FOBSH| CASE1: no hop and no trivial crossing
 ENTER integrator.F
 STEP NUMBER                  =          195
 CPU TIME [s]                 =    7.7028384432196617E-002  0.13720923099571325     

 *******************************************************************************
 ENSEMBLE TYPE                =                                              NVE
 STEP NUMBER                  =                                              195
 TIME [fs]                    =                                        19.500000
 CONSERVED QUANTITY [hartree] =                               0.485298813950E+01

                                              INSTANTANEOUS             AVERAGES
 CPU TIME [s]                 =                        0.08                 0.14
 ENERGY DRIFT PER ATOM [K]    =          0.420649409510E-01   0.172734237136E-02
 POTENTIAL ENERGY[hartree]    =          0.262802008744E+01   0.239296173605E+01
 KINETIC ENERGY [hartree]     =          0.222496805206E+01   0.245991132208E+01
 TEMPERATURE [K]              =                     521.015              576.031
 *******************************************************************************

 FOBSH| *** OFF-DIAGONAL GRADIENT CALCULATION
 FOBSH| Put former active state           1 in new active state           1
 FOBSH| ACTIVE STATE =            1

 ENERGY| Total FORCE_EVAL ( MIXED ) energy (a.u.):             2.652321238594954

 FOBSH| *** WARNING: Projection to avoid spurious transfer get lambda =    1.0185740914793411      ***
 FOBSH| CASE1: no hop and no trivial crossing
 ENTER integrator.F
 STEP NUMBER                  =          196
 CPU TIME [s]                 =    7.7058870345354080E-002  0.13690234140055835     

 *******************************************************************************
 ENSEMBLE TYPE                =                                              NVE
 STEP NUMBER                  =                                              196
 TIME [fs]                    =                                        19.600000
 CONSERVED QUANTITY [hartree] =                               0.485300809049E+01

                                              INSTANTANEOUS             AVERAGES
 CPU TIME [s]                 =                        0.08                 0.14
 ENERGY DRIFT PER ATOM [K]    =          0.490649606755E-01   0.196886083209E-02
 POTENTIAL ENERGY[hartree]    =          0.265232123859E+01   0.239428499882E+01
 KINETIC ENERGY [hartree]     =          0.220068685190E+01   0.245858874825E+01
 TEMPERATURE [K]              =                     515.329              575.721
 *******************************************************************************

 FOBSH| *** OFF-DIAGONAL GRADIENT CALCULATION
 FOBSH| Put former active state           1 in new active state           1
 FOBSH| ACTIVE STATE =            1

 ENERGY| Total FORCE_EVAL ( MIXED ) energy (a.u.):             2.674377423221269

 FOBSH| *** WARNING: Projection to avoid spurious transfer get lambda =    1.0168236042104124      ***
 FOBSH| CASE1: no hop and no trivial crossing
 ENTER integrator.F
 STEP NUMBER                  =          197
 CPU TIME [s]                 =    7.6726295053958893E-002  0.13659687923636241     

 *******************************************************************************
 ENSEMBLE TYPE                =                                              NVE
 STEP NUMBER                  =                                              197
 TIME [fs]                    =                                        19.700000
 CONSERVED QUANTITY [hartree] =                               0.485302640928E+01

                                              INSTANTANEOUS             AVERAGES
 CPU TIME [s]                 =                        0.08                 0.14
 ENERGY DRIFT PER ATOM [K]    =          0.554923030514E-01   0.224055343219E-02
 POTENTIAL ENERGY[hartree]    =          0.267437742322E+01   0.239570678778E+01
 KINETIC ENERGY [hartree]     =          0.217864898605E+01   0.245716773423E+01
 TEMPERATURE [K]              =                     510.168              575.388
 *******************************************************************************

 FOBSH| *** OFF-DIAGONAL GRADIENT CALCULATION
 FOBSH| Put former active state           1 in new active state           1
 FOBSH| ACTIVE STATE =            1

 ENERGY| Total FORCE_EVAL ( MIXED ) energy (a.u.):             2.693899302938787

 FOBSH| *** WARNING: Projection to avoid spurious transfer get lambda =    1.0151708829454416      ***
 FOBSH| CASE1: no hop and no trivial crossing
 ENTER integrator.F
 STEP NUMBER                  =          198
 CPU TIME [s]                 =    7.7282553538680077E-002  0.13629731193485897     

 *******************************************************************************
 ENSEMBLE TYPE                =                                              NVE
 STEP NUMBER                  =                                              198
 TIME [fs]                    =                                        19.800000
 CONSERVED QUANTITY [hartree] =                               0.485304286701E+01

                                              INSTANTANEOUS             AVERAGES
 CPU TIME [s]                 =                        0.08                 0.14
 ENERGY DRIFT PER ATOM [K]    =          0.612666754297E-01   0.253866515945E-02
 POTENTIAL ENERGY[hartree]    =          0.269389930294E+01   0.239721281058E+01
 KINETIC ENERGY [hartree]     =          0.215914356407E+01   0.245566256166E+01
 TEMPERATURE [K]              =                     505.601              575.036
 *******************************************************************************

 FOBSH| *** OFF-DIAGONAL GRADIENT CALCULATION
 FOBSH! Reorgering: for state           5  we stay in with overlap  0.45006491004659460       instead of goind to            6 with overlap -0.88762172912653992     
 FOBSH! Reorgering: for state           6  we stay in with overlap -0.44982695818313195       instead of goind to            5 with overlap -0.89263289430467130     
 FOBSH| New map:            1           2           3           4           0           0           7           8
 FOBSH! New map again:           1           2           3           4           0           0           7           8
 FOBSH| Put former active state           1 in new active state           1
 FOBSH| ACTIVE STATE =            1

 ENERGY| Total FORCE_EVAL ( MIXED ) energy (a.u.):             2.710627110230880

 FOBSH| *** WARNING: Projection to avoid spurious transfer get lambda =    1.0136161985076289      ***
 FOBSH| CASE1: no hop and no trivial crossing
 ENTER integrator.F
 STEP NUMBER                  =          199
 CPU TIME [s]                 =    7.6799260452389717E-002  0.13599832675152998     

 *******************************************************************************
 ENSEMBLE TYPE                =                                              NVE
 STEP NUMBER                  =                                              199
 TIME [fs]                    =                                        19.900000
 CONSERVED QUANTITY [hartree] =                               0.485305725902E+01

                                              INSTANTANEOUS             AVERAGES
 CPU TIME [s]                 =                        0.08                 0.14
 ENERGY DRIFT PER ATOM [K]    =          0.663162667109E-01   0.285915561951E-02
 POTENTIAL ENERGY[hartree]    =          0.271062711023E+01   0.239878775681E+01
 KINETIC ENERGY [hartree]     =          0.214243014879E+01   0.245408852943E+01
 TEMPERATURE [K]              =                     501.687              574.667
 *******************************************************************************

 FOBSH| *** OFF-DIAGONAL GRADIENT CALCULATION
 FOBSH| Put former active state           1 in new active state           1
 FOBSH| ACTIVE STATE =            1

 ENERGY| Total FORCE_EVAL ( MIXED ) energy (a.u.):             2.724333913933550

 FOBSH| *** WARNING: Projection to avoid spurious transfer get lambda =    1.0121593378620606      ***
 FOBSH| CASE1: no hop and no trivial crossing
 ENTER integrator.F
 STEP NUMBER                  =          200
 CPU TIME [s]                 =    7.7483631670475006E-002  0.13570575327612472     

 *******************************************************************************
 ENSEMBLE TYPE                =                                              NVE
 STEP NUMBER                  =                                              200
 TIME [fs]                    =                                        20.000000
 CONSERVED QUANTITY [hartree] =                               0.485306940132E+01

                                              INSTANTANEOUS             AVERAGES
 CPU TIME [s]                 =                        0.08                 0.14
 ENERGY DRIFT PER ATOM [K]    =          0.705765221869E-01   0.319774245235E-02
 POTENTIAL ENERGY[hartree]    =          0.272433391393E+01   0.240041548760E+01
 KINETIC ENERGY [hartree]     =          0.212873548739E+01   0.245246176422E+01
 TEMPERATURE [K]              =                     498.480              574.286
 *******************************************************************************


 -------------------------------------------------------------------------------
 -                                                                             -
 -                                DBCSR STATISTICS                             -
 -                                                                             -
 -------------------------------------------------------------------------------
 COUNTER                                    TOTAL       BLAS       SMM       ACC
 flops total                                    0       0.0%      0.0%      0.0%
 flops max/rank                                 0       0.0%      0.0%      0.0%
 matmuls inhomo. stacks                         0       0.0%      0.0%      0.0%
 matmuls total                                  0       0.0%      0.0%      0.0%
 number of processed stacks                     0       0.0%      0.0%      0.0%
 average stack size                                     0.0       0.0       0.0
 marketing flops                     0.000000E+00
 -------------------------------------------------------------------------------

 MEMORY| Estimated peak process memory [MiB]                                 104

 -------------------------------------------------------------------------------
 -                                                                             -
 -                           R E F E R E N C E S                               -
 -                                                                             -
 -------------------------------------------------------------------------------
 
 CP2K version 4.0 (Development Version), the CP2K developers group (2015).
 CP2K is freely available from https://www.cp2k.org/ .

 Borstnik, U; VandeVondele, J; Weber, V; Hutter, J. 
 PARALLEL COMPUTING, 40 (5-6), 47-58 (2014). 
 Sparse matrix multiplication: The distributed block-compressed sparse
 row library.
 http://dx.doi.org/10.1016/j.parco.2014.03.012


 Hutter, J; Iannuzzi, M; Schiffmann, F; VandeVondele, J. 
 WILEY INTERDISCIPLINARY REVIEWS-COMPUTATIONAL MOLECULAR SCIENCE, 4 (1), 15-25 (2014). 
 CP2K: atomistic simulations of condensed matter systems.
 http://dx.doi.org/10.1002/wcms.1159


 Frigo, M; Johnson, SG. 
 PROCEEDINGS OF THE IEEE, 93 (2), 216-231 (2005). 
 The design and implementation of FFTW3.
 http://dx.doi.org/10.1109/JPROC.2004.840301


 -------------------------------------------------------------------------------
 -                                                                             -
 -                                T I M I N G                                  -
 -                                                                             -
 -------------------------------------------------------------------------------
 SUBROUTINE                       CALLS  ASD         SELF TIME        TOTAL TIME
                                MAXIMUM       AVERAGE  MAXIMUM  AVERAGE  MAXIMUM
 CP2K                                 1  1.0    0.032    0.032   36.752   36.752
 qs_mol_dyn_low                       1  2.0    0.160    0.160   27.209   27.209
 velocity_verlet                    200  3.0   18.841   18.841   25.746   25.746
 topology_control                     3  4.0    0.008    0.008    8.877    8.877
 connectivity_control                 3  5.0    0.028    0.028    8.547    8.547
 read_topology_psf                  150  6.0    3.784    3.784    8.490    8.490
 fist_calc_energy_force             402  4.0    0.063    0.063    7.203    7.203
 fist_create_force_env                2  2.0    0.000    0.000    6.867    6.867
 fist_init                            2  3.0    0.002    0.002    6.867    6.867
 force_nonbond                      201  5.0    5.432    5.432    5.432    5.432
 parser_read_line                 12762  7.2    0.201    0.201    5.319    5.319
 parser_read_line_low               171  7.9    5.099    5.099    5.117    5.117
 mixed_create_force_env               1  2.0    0.001    0.001    2.627    2.627
 mixed_init                           1  3.0    0.000    0.000    2.627    2.627
 force_intra_control                402  5.0    1.041    1.041    1.041    1.041
 md_output                          200  3.0    0.001    0.001    0.954    0.954
 md_write_output                    201  4.0    0.883    0.883    0.933    0.933
 -------------------------------------------------------------------------------

 The number of warnings for this run is : 1
 
 -------------------------------------------------------------------------------
  **** **** ******  **  PROGRAM ENDED AT                 2021-04-29 14:24:07.125
 ***** ** ***  *** **   PROGRAM RAN ON                   bulstake.phys.ucl.ac.uk
 **    ****   ******    PROGRAM RAN BY                                 sgiannini
 ***** **    ** ** **   PROGRAM PROCESS ID                                 12983
  **** **  *******  **  PROGRAM STOPPED IN /scratch/sgiannini/REG_TEST_MERGING/3
                                           7-071a0540f1_code_extension_V3_ADJ/ru
                                           n-fssh-BOMD
