#     Step Nr.          Time[fs]        Kin.[a.u.]          Temp[K]            Pot.[a.u.]        Cons Qty[a.u.]        UsedTime[s]
         0            0.000000         2.412123729       564.840579357         2.446232218         4.858355947         0.000000000
         1            0.100000         2.440711636       571.534933276         2.417622452         4.858334088        65.086103959
         2            0.200000         2.467926335       577.907726621         2.390386990         4.858313325         0.028282438
         3            0.300000         2.493438349       583.881807059         2.364855773         4.858294123         0.029205050
         4            0.400000         2.516943052       589.385840613         2.341333700         4.858276752         0.028194398
         5            0.500000         2.538165168       594.355366881         2.320096255         4.858261423         0.027715025
         6            0.600000         2.556862373       598.733641547         2.301385964         4.858248337         0.027800805
         7            0.700000         2.572828398       602.472363015         2.285409264         4.858237662         0.027479324
         8            0.800000         2.585895623       605.532280112         2.272333899         4.858229522         0.027426889
         9            0.900000         2.595937170       607.883682553         2.262286862         4.858224032         0.027867477
        10            1.000000         2.602868453       609.506762553         2.255352775         4.858221228         0.027636823
        11            1.100000         2.606648191       610.391853647         2.251572990         4.858221181         0.078696830
        12            1.200000         2.607278770       610.539514649         2.250945087         4.858223856         0.027299871
        13            1.300000         2.604806031       609.960480087         2.253423178         4.858229209         0.028532313
        14            1.400000         2.599320487       608.675944707         2.258916653         4.858237140         0.027580814
        15            1.500000         2.590946808       606.715102749         2.267300745         4.858247553         0.027557465
        16            1.600000         2.579854757       604.117706667         2.278405522         4.858260279         0.027561455
        17            1.700000         2.566251332       600.932229007         2.292023810         4.858275142         0.027580769
        18            1.800000         2.550377900       597.215189786         2.307914053         4.858291953         0.027626756
        19            1.900000         2.532506916       593.030389070         2.325803561         4.858310476         0.027565431
        20            2.000000         2.512938231       588.448042276         2.345392204         4.858330435         0.027338458
        21            2.100000         2.491994990       583.543819492         2.366356609         4.858351599         0.078609151
        22            2.200000         2.470019185       578.397803834         2.388354478         4.858373663         0.027453650
        23            2.300000         2.447367042       573.093411925         2.411029276         4.858396318         0.027647552
        24            2.400000         2.424404250       567.716276192         2.434015004         4.858419254         0.027052370
        25            2.500000         2.401500988       562.353080366         2.456941145         4.858442133         0.027322854
        26            2.600000         2.379026856       557.090372936         2.479437806         4.858464662         0.027511580
        27            2.700000         2.357345879       552.013396308         2.501140669         4.858486548         0.027406778
        28            2.800000         2.336811650       547.204950580         2.521695827         4.858507477         0.027488754
        29            2.900000         2.317762530       542.744269124         2.540764631         4.858527161         0.027285531
        30            3.000000         2.300517048       538.705940567         2.558028298         4.858545346         0.027326277
        31            3.100000         2.285369584       535.158899219         2.573192202         4.858561785         0.078291517
        32            3.200000         2.272586281       532.165467437         2.585989942         4.858576224         0.027306637
        33            3.300000         2.262401397       529.780500115         2.596187083         4.858588479         0.026995016
        34            3.400000         2.255014117       528.050640526         2.603584249         4.858598366         0.027239201
        35            3.500000         2.250585778       527.013668252         2.608019958         4.858605736         0.027227716
        36            3.600000         2.249237578       526.697963886         2.609372925         4.858610503         0.027128799
        37            3.700000         2.251048858       527.122106349         2.607563702         4.858612560         0.027185506
        38            3.800000         2.256055912       528.294594955         2.602556004         4.858611916         0.027177709
        39            3.900000         2.264251342       530.213696936         2.594357188         4.858608530         0.026976247
        40            4.000000         2.275584004       532.867436033         2.583018448         4.858602451         0.027180305
        41            4.100000         2.289959516       536.233711536         2.568634248         4.858593765         0.078264615
        42            4.200000         2.307241322       540.280545866         2.551341212         4.858582534         0.026944043
        43            4.300000         2.327252323       544.966468689         2.531316599         4.858568923         0.027039972
        44            4.400000         2.349777108       550.241037335         2.508775967         4.858553075         0.027066455
        45            4.500000         2.374564607       556.045460009         2.483970598         4.858535206         0.027130633
        46            4.600000         2.401331175       562.313315841         2.457184364         4.858515539         0.027340814
        47            4.700000         2.429764162       568.971392517         2.428730146         4.858494308         0.027075779
        48            4.800000         2.459525806       575.940597161         2.398945972         4.858471778         0.026923768
        49            4.900000         2.490257309       583.136911310         2.368190900         4.858448208         0.027204601
        50            5.000000         2.521583078       590.472383113         2.336840752         4.858423830         0.027207498
        51            5.100000         2.553114614       597.856038886         2.305284189         4.858398804         0.077903103
        52            5.200000         2.584453091       605.194486438         2.273919903         4.858372994         0.027152522
        53            5.300000         2.615188076       612.391615830         2.243157549         4.858345625         0.027070825
        54            5.400000         2.645553548       619.502217333         2.212764278         4.858317826         0.047824658
        55            5.500000         2.673891387       626.138013615         2.184400452         4.858291839         0.027016552
        56            5.600000         2.700599631       632.392211876         2.157666368         4.858265999         0.027003365
        57            5.700000         2.725287867       638.173390269         2.132956142         4.858244010         0.027051695
        58            5.800000         2.747607191       643.399846718         2.110617558         4.858224749         0.027268831
        59            5.900000         2.767249577       647.999451794         2.090958231         4.858207808         0.026870846
        60            6.000000         2.783943114       651.908532913         2.074250047         4.858193161         0.027122057
        61            6.100000         2.797452259       655.071933439         2.060728695         4.858180955         0.077689363
        62            6.200000         2.807579772       657.443466016         2.050591536         4.858171308         0.027205835
        63            6.300000         2.814168871       658.986417712         2.043995451         4.858164321         0.027180433
        64            6.400000         2.817105161       659.674000993         2.041054936         4.858160097         0.027182310
        65            6.500000         2.816318097       659.489696334         2.041840581         4.858158678         0.026976515
        66            6.600000         2.811781920       658.427471778         2.046378179         4.858160098         0.027080774
        67            6.700000         2.803516096       656.491885915         2.054648256         4.858164353         0.115069712
        68            6.800000         2.791585165       653.698051484         2.066586230         4.858171394         0.027061777
        69            6.900000         2.776098023       650.071468950         2.082083120         4.858181143         0.027098619
        70            7.000000         2.757206683       645.647734076         2.100986799         4.858193481         0.027287951
        71            7.100000         2.735104513       640.472127910         2.123103754         4.858208267         0.078174334
        72            7.200000         2.710023909       634.599069922         2.148201439         4.858225348         0.027069387
        73            7.300000         2.682233458       628.091454091         2.176011033         4.858244491         0.027050911
        74            7.400000         2.652034737       621.019900066         2.206230733         4.858265470         0.026943866
        75            7.500000         2.619758701       613.461906944         2.238529340         4.858288042         0.027011058
        76            7.600000         2.585762087       605.501010406         2.272550017         4.858312104         0.027044827
        77            7.700000         2.550425758       597.226396574         2.307912194         4.858337952         0.026888336
        78            7.800000         2.514119982       588.724769898         2.344242808         4.858362790         0.047967209
        79            7.900000         2.477282168       580.098557213         2.381106617         4.858388785         0.026997292
        80            8.000000         2.440309162       571.440686903         2.418105696         4.858414858         0.027061959
        81            8.100000         2.403613885       562.847851862         2.454826843         4.858440728         0.077397561
        82            8.200000         2.367605677       554.415905891         2.490860381         4.858466059         0.027017459
        83            8.300000         2.332685255       546.238683734         2.525805266         4.858490521         0.027125495
        84            8.400000         2.299239772       538.406844187         2.559274059         4.858513831         0.027142520
        85            8.500000         2.267654810       531.010677915         2.590880960         4.858535770         0.047683903
        86            8.600000         2.238242623       524.123304655         2.620312667         4.858555290         0.026970423
        87            8.700000         2.211347093       517.825250069         2.647226345         4.858573438         0.026810081
        88            8.800000         2.187254113       512.183461110         2.671335427         4.858589539         0.027126584
        89            8.900000         2.166218065       507.257506018         2.692385265         4.858603331         0.027140148
        90            9.000000         2.148456735       503.098382678         2.710157893         4.858614628         0.026802291
        91            9.100000         2.134148258       499.747804765         2.724475043         4.858623301         0.077334438
        92            9.200000         2.123428896       497.237680483         2.735200357         4.858629254         0.026960906
        93            9.300000         2.116391438       495.589737589         2.742240960         4.858632398         0.027109134
        94            9.400000         2.113084225       494.815296385         2.745548489         4.858632714         0.026953171
        95            9.500000         2.113510632       494.915146925         2.745119583         4.858630215         0.027056972
        96            9.600000         2.117629142       495.879567558         2.740995786         4.858624928         0.026925529
        97            9.700000         2.125353992       497.688474923         2.733262949         4.858616940         0.026840230
        98            9.800000         2.136556368       500.311705581         2.722049982         4.858606350         0.027049626
        99            9.900000         2.151066177       503.709428723         2.707527119         4.858593296         0.026856344
       100           10.000000         2.168674265       507.832667795         2.689903688         4.858577953         0.026921444
       101           10.100000         2.189135152       512.623939045         2.669425372         4.858560524         0.077606660
       102           10.200000         2.212170205       518.017995940         2.646371018         4.858541222         0.026923828
       103           10.300000         2.237471206       523.942663956         2.621049089         4.858520295         0.026707944
       104           10.400000         2.264704322       530.319769995         2.593793707         4.858498028         0.026834828
       105           10.500000         2.293514358       537.066139309         2.564960321         4.858474679         0.027102945
       106           10.600000         2.323529263       544.094649504         2.534921309         4.858450571         0.026888049
       107           10.700000         2.354364840       551.315334309         2.504061149         4.858425989         0.026967000
       108           10.800000         2.385629617       558.636523696         2.472771636         4.858401253         0.026818085
       109           10.900000         2.416929797       565.966003480         2.441446873         4.858376670         0.026805604
       110           11.000000         2.447874224       573.212177295         2.410478333         4.858352557         0.026941090
       111           11.100000         2.478079253       580.285208486         2.380249941         4.858329194         0.077367043
       112           11.200000         2.507173567       587.098146281         2.351133284         4.858306850         0.026760987
       113           11.300000         2.534802855       593.568023093         2.323482976         4.858285831         0.026856221
       114           11.400000         2.560634163       599.616871572         2.297632242         4.858266405         0.026950841
       115           11.500000         2.584360005       605.172688664         2.273888803         4.858248808         0.026817969
       116           11.600000         2.605702185       610.170329972         2.252531074         4.858233259         0.026848732
       117           11.700000         2.624415171       614.552299992         2.233804753         4.858219924         0.026959720
       118           11.800000         2.640289056       618.269445330         2.217919908         4.858208964         0.027111309
       119           11.900000         2.653152069       621.281542749         2.205048445         4.858200513         0.027118421
       120           12.000000         2.662872578       623.557768478         2.195322086         4.858194665         0.026943494
       121           12.100000         2.669360556       625.077040940         2.188830899         4.858191455         0.077481126
       122           12.200000         2.672568576       625.828254382         2.185622328         4.858190904         0.027029605
       123           12.300000         2.672492202       625.810370162         2.185700831         4.858193034         0.026947696
       124           12.400000         2.669169833       625.032379721         2.189027963         4.858197795         0.026840678
       125           12.500000         2.662682024       623.513146967         2.195523105         4.858205130         0.026878093
       126           12.600000         2.653150201       621.281105427         2.205064690         4.858214892         0.027208935
       127           12.700000         2.640734956       618.373860507         2.217492020         4.858226976         0.026868067
       128           12.800000         2.625633780       614.837658333         2.232607417         4.858241196         0.026944570
       129           12.900000         2.608078293       610.726736966         2.250179065         4.858257358         0.026896071
       130           13.000000         2.588331070       606.102582353         2.269944168         4.858275238         0.026989829
       131           13.100000         2.566682082       601.033096535         2.291612486         4.858294568         0.076577499
       132           13.200000         2.543444831       595.591691413         2.314870257         4.858315087         0.026942811
       133           13.300000         2.518952148       589.856305144         2.339384381         4.858336529         0.026964740
       134           13.400000         2.493551758       583.908363740         2.364806879         4.858358637         0.026811157
       135           13.500000         2.467601653       577.831696765         2.390779427         4.858381080         0.026806176
       136           13.600000         2.441465324       571.711422246         2.416938258         4.858403582         0.026917676
       137           13.700000         2.415506995       565.632829681         2.442918839         4.858425834         0.026886485
       138           13.800000         2.390086804       559.680251442         2.468360743         4.858447547         0.027065921
       139           13.900000         2.365555990       553.935936081         2.492912420         4.858468410         0.026984405
       140           14.000000         2.342252309       548.478975352         2.516235849         4.858488159         0.026753900
       141           14.100000         2.320495598       543.384264221         2.538010923         4.858506521         0.076809859
       142           14.200000         2.300583618       538.721529093         2.557939627         4.858523245         0.026815979
       143           14.300000         2.282788154       534.554412635         2.575749986         4.858538140         0.026988153
       144           14.400000         2.267351364       530.939620696         2.591199626         4.858550990         0.027000216
       145           14.500000         2.254482650       527.926188269         2.604078987         4.858561636         0.026952347
       146           14.600000         2.244355904       525.554835208         2.614214029         4.858569932         0.026965953
       147           14.700000         2.237107259       523.857439450         2.621468506         4.858575765         0.027125129
       148           14.800000         2.232833353       522.856630129         2.625745715         4.858579068         0.114914579
       149           14.900000         2.231590030       522.565484626         2.626989753         4.858579783         0.027022151
       150           15.000000         2.233391638       522.987362416         2.625186275         4.858577914         0.027173340
       151           15.100000         2.238210873       524.115869764         2.620362589         4.858573462         0.077095425
       152           15.200000         2.245979189       525.934955633         2.612587304         4.858566493         0.027000626
       153           15.300000         2.256587732       528.419129806         2.601969376         4.858557108         0.027004451
       154           15.400000         2.269888740       531.533791365         2.588656696         4.858545436         0.026674720
       155           15.500000         2.285697551       535.235698568         2.572834075         4.858531627         0.026610506
       156           15.600000         2.303795085       539.473549828         2.554720781         4.858515867         0.026697948
       157           15.700000         2.323930722       544.188658112         2.534567626         4.858498348         0.026877144
       158           15.800000         2.345825624       549.315729023         2.512653700         4.858479324         0.027111576
       159           15.900000         2.369176388       554.783714989         2.489282659         4.858459047         0.027070669
       160           16.000000         2.393659095       560.516765216         2.464778679         4.858437774         0.026997003
       161           16.100000         2.418933594       566.435227153         2.439482174         4.858415767         0.077128855
       162           16.200000         2.444648014       572.456704383         2.413745311         4.858393325         0.027027062
       163           16.300000         2.470443437       578.497149741         2.387927335         4.858370772         0.026849586
       164           16.400000         2.495958529       584.471950728         2.362389855         4.858348383         0.026959623
       165           16.500000         2.520834408       590.297069129         2.337492055         4.858326463         0.027136317
       166           16.600000         2.544719398       595.890153348         2.313585898         4.858305296         0.026945055
       167           16.700000         2.567273596       601.171609731         2.291011590         4.858285186         0.026995503
       168           16.800000         2.588173390       606.065658885         2.270092978         4.858266368         0.026883908
       169           16.900000         2.607115751       610.501341001         2.251133364         4.858249115         0.026935090
       170           17.000000         2.623822274       614.413462823         2.234411392         4.858233666         0.027098894
       171           17.100000         2.638042880       617.743464196         2.220177319         4.858220198         0.077168327
       172           17.200000         2.649559152       620.440198962         2.208649759         4.858208911         0.026886824
       173           17.300000         2.658187275       622.460623527         2.200012678         4.858199953         0.026932892
       174           17.400000         2.663780496       623.770373128         2.194412962         4.858193458         0.027077504
       175           17.500000         2.666231102       624.344225036         2.191958416         4.858189518         0.026967327
       176           17.600000         2.665471992       624.166466161         2.192716202         4.858188194         0.027015033
       177           17.700000         2.661477654       623.231122800         2.196711861         4.858189515         0.027066498
       178           17.800000         2.654264545       621.542048225         2.203928927         4.858193471         0.027142681
       179           17.900000         2.643891080       619.112921679         2.214308938         4.858200018         0.027025807
       180           18.000000         2.630457050       615.967110716         2.227752040         4.858209090         0.026919898
       181           18.100000         2.614102389       612.137383313         2.244118164         4.858220552         0.077072117
       182           18.200000         2.595005560       607.665529815         2.263228729         4.858234289         0.026886333
       183           18.300000         2.573381438       602.601866819         2.284868714         4.858250152         0.027210120
       184           18.400000         2.549478593       597.004601506         2.308789346         4.858267939         0.026938484
       185           18.500000         2.523576267       590.939122813         2.334711166         4.858287432         0.027029149
       186           18.600000         2.495980929       584.477196105         2.362327473         4.858308402         0.027028248
       187           18.700000         2.467022465       577.696069980         2.391308111         4.858330576         0.026897926
       188           18.800000         2.437050121       570.677526161         2.421303559         4.858353681         0.027179092
       189           18.900000         2.406428081       563.506844626         2.451949365         4.858377446         0.026904352
       190           19.000000         2.375530938       556.271742968         2.482870650         4.858401587         0.026927377
       191           19.100000         2.344739062       549.061291491         2.513686698         4.858425760         0.077127388
       192           19.200000         2.314433843       541.964799217         2.544015831         4.858449674         0.027031808
       193           19.300000         2.284992896       535.070691381         2.573480164         4.858473060         0.026806409
       194           19.400000         2.256785368       528.465409684         2.601710259         4.858495627         0.026964300
       195           19.500000         2.230167336       522.232336223         2.628349762         4.858517099         0.027044903
       196           19.600000         2.205477374       516.450753511         2.653059836         4.858537209         0.026984520
       197           19.700000         2.183032354       511.194863041         2.675523376         4.858555729         0.027031083
       198           19.800000         2.163123560       506.532874056         2.695448862         4.858572422         0.027005468
       199           19.900000         2.146013152       502.526175250         2.712573974         4.858587125         0.027047231
       200           20.000000         2.131931143       499.228628958         2.726668535         4.858599678         0.027085313
