 DBCSR| Multiplication driver                                               XSMM
 DBCSR| Multrec recursion limit                                              512
 DBCSR| Multiplication stack size                                           1000
 DBCSR| Maximum elements for images                                    UNLIMITED
 DBCSR| Randmat seed                                                    12341313
 DBCSR| Multiplication size stacks                                             3


  **** **** ******  **  PROGRAM STARTED AT               2021-02-12 16:43:36.187
 ***** ** ***  *** **   PROGRAM STARTED ON               bulstake.phys.ucl.ac.uk
 **    ****   ******    PROGRAM STARTED BY                             sgiannini
 ***** **    ** ** **   PROGRAM PROCESS ID                                  3522
  **** **  *******  **  PROGRAM STARTED IN /scratch/sgiannini/FOB-SH-REGTESTS_/3
                                           3-XXX_code_extension_V2/run-fssh-MTS1
                                           0

 CP2K| version string:                    CP2K version 4.0 (Development Version)
 CP2K| source code revision number:                                  git:cfe3005
 CP2K| cp2kflags: libint fftw3 libxc quip smm_dnn smm libxsmm libderiv_max_am1=5
 CP2K|             libint_max_am=6
 CP2K| is freely available from                            https://www.cp2k.org/
 CP2K| Program compiled at                          Fri 12 Feb 16:41:38 GMT 2021
 CP2K| Program compiled on                               bulstake.phys.ucl.ac.uk
 CP2K| Program compiled for                                                local
 CP2K| Data directory path           /scratch/sgiannini/flavoured-cptk/cp2k/data
 CP2K| Input file name                                                   run.inp

 GLOBAL| Force Environment number                                              1
 GLOBAL| Basis set file name                                           POTENTIAL
 GLOBAL| MM Potential file name                                     MM_POTENTIAL
 GLOBAL| Coordinate file name                                       pos-init.xyz
 GLOBAL| Force Environment number                                              2
 GLOBAL| Basis set file name                                           POTENTIAL
 GLOBAL| MM Potential file name                                     MM_POTENTIAL
 GLOBAL| Coordinate file name                                       pos-init.xyz
 GLOBAL| Force Environment number                                              3
 GLOBAL| Basis set file name                                           POTENTIAL
 GLOBAL| MM Potential file name                                     MM_POTENTIAL
 GLOBAL| Coordinate file name                                       pos-init.xyz
 GLOBAL| Method name                                                        CP2K
 GLOBAL| Project name                                                        run
 GLOBAL| Preferred FFT library                                             FFTW3
 GLOBAL| Preferred diagonalization lib.                                       SL
 GLOBAL| Run type                                                             MD
 GLOBAL| All-to-all communication in single precision                          F
 GLOBAL| FFTs using library dependent lengths                                  F
 GLOBAL| Global print level                                                  LOW
 GLOBAL| Total number of message passing processes                             1
 GLOBAL| Number of threads for this process                                    1
 GLOBAL| This output is from process                                           0
 GLOBAL| CPU model name :  Intel(R) Xeon(R) CPU E5-2687W v4 @ 3.00GHz

 MEMORY| system memory details [Kb]
 MEMORY|                        rank 0           min           max       average
 MEMORY| MemTotal             65894336      65894336      65894336      65894336
 MEMORY| MemFree               3500532       3500532       3500532       3500532
 MEMORY| Buffers                  9680          9680          9680          9680
 MEMORY| Cached               50526168      50526168      50526168      50526168
 MEMORY| Slab                  2054100       2054100       2054100       2054100
 MEMORY| SReclaimable          1717764       1717764       1717764       1717764
 MEMORY| MemLikelyFree        55754144      55754144      55754144      55754144

 TOTAL NUMBER OF FORCE EVALS           3
 NOTE:n_subforce_eval           2
 DECOMP =  T
 DECOMP =  T

 MD| Molecular Dynamics Protocol 
 MD| Ensemble Type                                                           NVE
 MD| Number of Time Steps                                                    200
 MD| Time Step [fs]                                                         0.10
 MD| Temperature [K]                                                      400.00
 MD| Temperature tolerance [K]                                              0.00
 MD| Print MD information every                                        1 step(s)
 MD| File type     Print frequency[steps]                             File names
 MD| Coordinates          200                                      run-pos-1.xyz
 MD| Velocities             1                                      run-vel-1.xyz
 MD| Energies               1                                         run-1.ener
 MD| Dump                 200                                      run-1.restart

 ROT| Rotational Analysis Info 
 ROT| Principal axes and moments of inertia in atomic units:
 ROT|                                1                 2                 3
 ROT| EIGENVALUES            0.319196005E+10   0.583971964E+10   0.882037602E+10
 ROT|      X                     0.997631408       0.066105605       0.019016393
 ROT|      Y                     0.066118536      -0.997811774      -0.000051363
 ROT|      Z                    -0.018971385      -0.001308578       0.999819171
 ROT| Numer of Rotovibrational vectors:     6

 Calculation of degrees of freedom
                                                      Number of atoms:       900
                                 Number of Intramolecular constraints:         0
                                 Number of Intermolecular constraints:         0
                                  Invariants(translation + rotations):         3
                                                   Degrees of freedom:      2697


 Restraints Information
                                  Number of Intramolecular restraints:         0
                                  Number of Intermolecular restraints:         0

 *** WARNING in motion/thermostat/thermostat_methods.F:280 :: Thermostat ***
 *** for Particles has been defined but the ensemble provided does not   ***
 *** support thermostat for Particles! Ignoring thermostat input.        ***

 ************************** Velocities initialization **************************
 Initial Temperature                                                    564.84 K
 COM velocity:           -0.000000000004     -0.000000000000      0.000000000001
 *******************************************************************************

 FIRST CALL: force_env_calc_energy_force
 RESTART_KEY F
 FOB-SH: ALLOCATION OF S MATRICES
 Lookup table files:
 ../topologies/S_psigma.txt                                                      
 ../topologies/S_ppi.txt                                                         
 ../topologies/S_psigma_carbon_sulfur.dat                                        
 ../topologies/S_ppi_carbon_sulfur.dat                                           
 ../topologies/S_psigma_sulfur_sulfur.dat                                        
 ../topologies/S_ppi_sulfur_sulfur.dat                                           
 C-S psigma nrows     1166666
 C-S ppi nrows     1166666
 S-S psigma nrows     1166666
 S-S ppi nrows     1166666
 FOBSH| ACTIVE STATE =            3

 ENERGY| Total FORCE_EVAL ( MIXED ) energy (a.u.):             2.446232217772700

 STEP NUMBER                  =            0
 CPU TIME [s]                 =    0.0000000000000000        0.0000000000000000     

 MD_ENERGIES| Initialization proceeding


 ******************************** GO CP2K GO! **********************************
 INITIAL POTENTIAL ENERGY[hartree]     =                      0.244623221777E+01
 INITIAL KINETIC ENERGY[hartree]       =                      0.241212372912E+01
 INITIAL TEMPERATURE[K]                =                                 564.841
 INITIAL VOLUME[bohr^3]                =                      0.580604601118E+05
 INITIAL CELL LNTHS[bohr]   =      0.7651501E+02   0.5624770E+02   0.1634991E+02
 INITIAL CELL ANGLS[deg]    =      0.9000000E+02   0.1244000E+03   0.9000000E+02
 ******************************** GO CP2K GO! **********************************
 FOBSH| *** OFF-DIAGONAL GRADIENT CALCULATION
 FOBSH| Put former active state           3 in new active state           3
 RANDOM_NUMBER_HOPPING_PROBA   5.9147270233983230E-002
 FOBSH| ACTIVE STATE =            3

 ENERGY| Total FORCE_EVAL ( MIXED ) energy (a.u.):             2.417622451703958

 FOBSH| CASE1: no hop and no trivial crossing
 ENTER integrator.F
 STEP NUMBER                  =            1
 CPU TIME [s]                 =    65.086103959009051        65.086103959009051     

 *******************************************************************************
 ENSEMBLE TYPE                =                                              NVE
 STEP NUMBER                  =                                                1
 TIME [fs]                    =                                         0.100000
 CONSERVED QUANTITY [hartree] =                               0.485833408781E+01

                                              INSTANTANEOUS             AVERAGES
 CPU TIME [s]                 =                       65.09                65.09
 ENERGY DRIFT PER ATOM [K]    =         -0.766949633478E-02   0.000000000000E+00
 POTENTIAL ENERGY[hartree]    =          0.241762245170E+01   0.241762245170E+01
 KINETIC ENERGY [hartree]     =          0.244071163610E+01   0.244071163610E+01
 TEMPERATURE [K]              =                     571.535              571.535
 *******************************************************************************

 FOBSH| Put former active state           3 in new active state           3
 RANDOM_NUMBER_HOPPING_PROBA  0.31334635223635504     
 FOBSH| ACTIVE STATE =            3

 ENERGY| Total FORCE_EVAL ( MIXED ) energy (a.u.):             2.390386989939290

 FOBSH| CASE1: no hop and no trivial crossing
 ENTER integrator.F
 STEP NUMBER                  =            2
 CPU TIME [s]                 =    2.8282438404858112E-002   32.557193198706955     

 *******************************************************************************
 ENSEMBLE TYPE                =                                              NVE
 STEP NUMBER                  =                                                2
 TIME [fs]                    =                                         0.200000
 CONSERVED QUANTITY [hartree] =                               0.485831332451E+01

                                              INSTANTANEOUS             AVERAGES
 CPU TIME [s]                 =                        0.03                32.56
 ENERGY DRIFT PER ATOM [K]    =         -0.149545223484E-01  -0.747726117421E-02
 POTENTIAL ENERGY[hartree]    =          0.239038698994E+01   0.240400472082E+01
 KINETIC ENERGY [hartree]     =          0.246792633457E+01   0.245431898533E+01
 TEMPERATURE [K]              =                     577.908              574.721
 *******************************************************************************

 FOBSH| Put former active state           3 in new active state           3
 RANDOM_NUMBER_HOPPING_PROBA  0.96023393881708841     
 FOBSH| ACTIVE STATE =            3

 ENERGY| Total FORCE_EVAL ( MIXED ) energy (a.u.):             2.364855773499549

 FOBSH| CASE1: no hop and no trivial crossing
 ENTER integrator.F
 STEP NUMBER                  =            3
 CPU TIME [s]                 =    2.9205050319433212E-002   21.714530482577779     

 *******************************************************************************
 ENSEMBLE TYPE                =                                              NVE
 STEP NUMBER                  =                                                3
 TIME [fs]                    =                                         0.300000
 CONSERVED QUANTITY [hartree] =                               0.485829412280E+01

                                              INSTANTANEOUS             AVERAGES
 CPU TIME [s]                 =                        0.03                21.71
 ENERGY DRIFT PER ATOM [K]    =         -0.216916461343E-01  -0.122153894942E-01
 POTENTIAL ENERGY[hartree]    =          0.236485577350E+01   0.239095507171E+01
 KINETIC ENERGY [hartree]     =          0.249343834930E+01   0.246735877332E+01
 TEMPERATURE [K]              =                     583.882              577.775
 *******************************************************************************

 FOBSH| Put former active state           3 in new active state           3
 RANDOM_NUMBER_HOPPING_PROBA  0.63220638001778329     
 FOBSH| ACTIVE STATE =            3

 ENERGY| Total FORCE_EVAL ( MIXED ) energy (a.u.):             2.341333700199994

 FOBSH| CASE1: no hop and no trivial crossing
 ENTER integrator.F
 STEP NUMBER                  =            4
 CPU TIME [s]                 =    2.8194397687911987E-002   16.292946461355314     

 *******************************************************************************
 ENSEMBLE TYPE                =                                              NVE
 STEP NUMBER                  =                                                4
 TIME [fs]                    =                                         0.400000
 CONSERVED QUANTITY [hartree] =                               0.485827675230E+01

                                              INSTANTANEOUS             AVERAGES
 CPU TIME [s]                 =                        0.03                16.29
 ENERGY DRIFT PER ATOM [K]    =         -0.277862749957E-01  -0.161081108696E-01
 POTENTIAL ENERGY[hartree]    =          0.234133370020E+01   0.237854972884E+01
 KINETIC ENERGY [hartree]     =          0.251694305210E+01   0.247975484302E+01
 TEMPERATURE [K]              =                     589.386              580.678
 *******************************************************************************

 FOBSH| Put former active state           3 in new active state           3
 RANDOM_NUMBER_HOPPING_PROBA  0.89770462054818900     
 FOBSH| ACTIVE STATE =            3

 ENERGY| Total FORCE_EVAL ( MIXED ) energy (a.u.):             2.320096254884148

 FOBSH| CASE1: no hop and no trivial crossing
 ENTER integrator.F
 STEP NUMBER                  =            5
 CPU TIME [s]                 =    2.7715024538338184E-002   13.039900173991919     

 *******************************************************************************
 ENSEMBLE TYPE                =                                              NVE
 STEP NUMBER                  =                                                5
 TIME [fs]                    =                                         0.500000
 CONSERVED QUANTITY [hartree] =                               0.485826142287E+01

                                              INSTANTANEOUS             AVERAGES
 CPU TIME [s]                 =                        0.03                13.04
 ENERGY DRIFT PER ATOM [K]    =         -0.331647690760E-01  -0.195194425109E-01
 POTENTIAL ENERGY[hartree]    =          0.232009625488E+01   0.236685903405E+01
 KINETIC ENERGY [hartree]     =          0.253816516798E+01   0.249143690801E+01
 TEMPERATURE [K]              =                     594.355              583.413
 *******************************************************************************

 FOBSH| Put former active state           3 in new active state           3
 RANDOM_NUMBER_HOPPING_PROBA  0.58596674955475236     
 FOBSH| ACTIVE STATE =            3

 ENERGY| Total FORCE_EVAL ( MIXED ) energy (a.u.):             2.301385964281043

 FOBSH| CASE1: no hop and no trivial crossing
 ENTER integrator.F
 STEP NUMBER                  =            6
 CPU TIME [s]                 =    2.7800804935395718E-002   10.871216945815831     

 *******************************************************************************
 ENSEMBLE TYPE                =                                              NVE
 STEP NUMBER                  =                                                6
 TIME [fs]                    =                                         0.600000
 CONSERVED QUANTITY [hartree] =                               0.485824833746E+01

                                              INSTANTANEOUS             AVERAGES
 CPU TIME [s]                 =                        0.03                10.87
 ENERGY DRIFT PER ATOM [K]    =         -0.377559255150E-01  -0.225588563449E-01
 POTENTIAL ENERGY[hartree]    =          0.230138596428E+01   0.235594685575E+01
 KINETIC ENERGY [hartree]     =          0.255686237318E+01   0.250234115220E+01
 TEMPERATURE [K]              =                     598.734              585.967
 *******************************************************************************

 FOBSH| Put former active state           3 in new active state           3
 RANDOM_NUMBER_HOPPING_PROBA  0.80706637023710770     
 FOBSH| ACTIVE STATE =            3

 ENERGY| Total FORCE_EVAL ( MIXED ) energy (a.u.):             2.285409263865912

 FOBSH| CASE1: no hop and no trivial crossing
 ENTER integrator.F
 STEP NUMBER                  =            7
 CPU TIME [s]                 =    2.7479324489831924E-002   9.3221115713406881     

 *******************************************************************************
 ENSEMBLE TYPE                =                                              NVE
 STEP NUMBER                  =                                                7
 TIME [fs]                    =                                         0.700000
 CONSERVED QUANTITY [hartree] =                               0.485823766197E+01

                                              INSTANTANEOUS             AVERAGES
 CPU TIME [s]                 =                        0.03                 9.32
 ENERGY DRIFT PER ATOM [K]    =         -0.415015343716E-01  -0.252649532059E-01
 POTENTIAL ENERGY[hartree]    =          0.228540926387E+01   0.234587005691E+01
 KINETIC ENERGY [hartree]     =          0.257282839810E+01   0.251241075876E+01
 TEMPERATURE [K]              =                     602.472              588.325
 *******************************************************************************

 FOBSH| Put former active state           3 in new active state           3
 RANDOM_NUMBER_HOPPING_PROBA  0.43377226410075814     
 FOBSH| ACTIVE STATE =            3

 ENERGY| Total FORCE_EVAL ( MIXED ) energy (a.u.):             2.272333899294559

 FOBSH| CASE1: no hop and no trivial crossing
 ENTER integrator.F
 STEP NUMBER                  =            8
 CPU TIME [s]                 =    2.7426889166235924E-002   8.1602759860688820     

 *******************************************************************************
 ENSEMBLE TYPE                =                                              NVE
 STEP NUMBER                  =                                                8
 TIME [fs]                    =                                         0.800000
 CONSERVED QUANTITY [hartree] =                               0.485822952187E+01

                                              INSTANTANEOUS             AVERAGES
 CPU TIME [s]                 =                        0.03                 8.16
 ENERGY DRIFT PER ATOM [K]    =         -0.443575773693E-01  -0.276515312263E-01
 POTENTIAL ENERGY[hartree]    =          0.227233389929E+01   0.233667803721E+01
 KINETIC ENERGY [hartree]     =          0.258589562257E+01   0.252159636674E+01
 TEMPERATURE [K]              =                     605.532              590.475
 *******************************************************************************

 FOBSH| Put former active state           3 in new active state           3
 RANDOM_NUMBER_HOPPING_PROBA  0.73555961274458093     
 FOBSH| ACTIVE STATE =            3

 ENERGY| Total FORCE_EVAL ( MIXED ) energy (a.u.):             2.262286862192855

 FOBSH| CASE1: no hop and no trivial crossing
 ENTER integrator.F
 STEP NUMBER                  =            9
 CPU TIME [s]                 =    2.7867477387189865E-002   7.2566750406598048     

 *******************************************************************************
 ENSEMBLE TYPE                =                                              NVE
 STEP NUMBER                  =                                                9
 TIME [fs]                    =                                         0.900000
 CONSERVED QUANTITY [hartree] =                               0.485822403247E+01

                                              INSTANTANEOUS             AVERAGES
 CPU TIME [s]                 =                        0.03                 7.26
 ENERGY DRIFT PER ATOM [K]    =         -0.462835904635E-01  -0.297217600304E-01
 POTENTIAL ENERGY[hartree]    =          0.226228686219E+01   0.232841235110E+01
 KINETIC ENERGY [hartree]     =          0.259593717028E+01   0.252985645602E+01
 TEMPERATURE [K]              =                     607.884              592.410
 *******************************************************************************

 FOBSH| Put former active state           3 in new active state           3
 RANDOM_NUMBER_HOPPING_PROBA   4.1260874732924148E-002
 FOBSH| ACTIVE STATE =            3

 ENERGY| Total FORCE_EVAL ( MIXED ) energy (a.u.):             2.255352774672478

 FOBSH| CASE1: no hop and no trivial crossing
 ENTER integrator.F
 STEP NUMBER                  =           10
 CPU TIME [s]                 =    2.7636823244392872E-002   6.5337712189182646     

 *******************************************************************************
 ENSEMBLE TYPE                =                                              NVE
 STEP NUMBER                  =                                               10
 TIME [fs]                    =                                         1.000000
 CONSERVED QUANTITY [hartree] =                               0.485822122773E+01

                                              INSTANTANEOUS             AVERAGES
 CPU TIME [s]                 =                        0.03                 6.53
 ENERGY DRIFT PER ATOM [K]    =         -0.472676636987E-01  -0.314763503972E-01
 POTENTIAL ENERGY[hartree]    =          0.225535277467E+01   0.232110639345E+01
 KINETIC ENERGY [hartree]     =          0.260286845306E+01   0.253715765572E+01
 TEMPERATURE [K]              =                     609.507              594.119
 *******************************************************************************

 FOBSH| *** OFF-DIAGONAL GRADIENT CALCULATION
 FOBSH| Put former active state           3 in new active state           3
 RANDOM_NUMBER_HOPPING_PROBA  0.58709189717544119     
 FOBSH| ACTIVE STATE =            3

 ENERGY| Total FORCE_EVAL ( MIXED ) energy (a.u.):             2.251572989783865

 FOBSH| CASE1: no hop and no trivial crossing
 ENTER integrator.F
 STEP NUMBER                  =           11
 CPU TIME [s]                 =    7.8696830198168755E-002   5.9469462744891644     

 *******************************************************************************
 ENSEMBLE TYPE                =                                              NVE
 STEP NUMBER                  =                                               11
 TIME [fs]                    =                                         1.100000
 CONSERVED QUANTITY [hartree] =                               0.485822118054E+01

                                              INSTANTANEOUS             AVERAGES
 CPU TIME [s]                 =                        0.08                 5.95
 ENERGY DRIFT PER ATOM [K]    =         -0.472842202827E-01  -0.329134294777E-01
 POTENTIAL ENERGY[hartree]    =          0.225157298978E+01   0.231478517494E+01
 KINETIC ENERGY [hartree]     =          0.260664819076E+01   0.254347497709E+01
 TEMPERATURE [K]              =                     610.392              595.599
 *******************************************************************************

 FOBSH| Put former active state           3 in new active state           3
 RANDOM_NUMBER_HOPPING_PROBA  0.32174060049514402     
 FOBSH| ACTIVE STATE =            3

 ENERGY| Total FORCE_EVAL ( MIXED ) energy (a.u.):             2.250945086709278

 FOBSH| CASE1: no hop and no trivial crossing
 ENTER integrator.F
 STEP NUMBER                  =           12
 CPU TIME [s]                 =    2.7299870736896992E-002   5.4536424075098084     

 *******************************************************************************
 ENSEMBLE TYPE                =                                              NVE
 STEP NUMBER                  =                                               12
 TIME [fs]                    =                                         1.200000
 CONSERVED QUANTITY [hartree] =                               0.485822385646E+01

                                              INSTANTANEOUS             AVERAGES
 CPU TIME [s]                 =                        0.03                 5.45
 ENERGY DRIFT PER ATOM [K]    =         -0.463453445580E-01  -0.340327557344E-01
 POTENTIAL ENERGY[hartree]    =          0.225094508671E+01   0.230946516759E+01
 KINETIC ENERGY [hartree]     =          0.260727876975E+01   0.254879195981E+01
 TEMPERATURE [K]              =                     610.540              596.844
 *******************************************************************************

 FOBSH| Put former active state           3 in new active state           3
 RANDOM_NUMBER_HOPPING_PROBA  0.97250694206018107     
 FOBSH| ATTEMPTED_HOP
 FOBSH| ACTIVE STATE =            3

 ENERGY| Total FORCE_EVAL ( MIXED ) energy (a.u.):             2.253423177688595

 FOBSH| Active state before the attempt to hop:           3
 FOBSH| Active state after the attempt to hop:           3
 FOBSH| CASE4: rejected hop and good overlap
 ENTER integrator.F
 STEP NUMBER                  =           13
 CPU TIME [s]                 =    2.8532313182950020E-002   5.0363262464077430     

 *******************************************************************************
 ENSEMBLE TYPE                =                                              NVE
 STEP NUMBER                  =                                               13
 TIME [fs]                    =                                         1.300000
 CONSERVED QUANTITY [hartree] =                               0.485822920901E+01

                                              INSTANTANEOUS             AVERAGES
 CPU TIME [s]                 =                        0.03                 5.04
 ENERGY DRIFT PER ATOM [K]    =         -0.444673450324E-01  -0.348354164497E-01
 POTENTIAL ENERGY[hartree]    =          0.225342317769E+01   0.230515424529E+01
 KINETIC ENERGY [hartree]     =          0.260480603132E+01   0.255310073454E+01
 TEMPERATURE [K]              =                     609.960              597.853
 *******************************************************************************

 FOBSH| Put former active state           3 in new active state           3
 RANDOM_NUMBER_HOPPING_PROBA  0.62993535795867317     
 FOBSH| ACTIVE STATE =            3

 ENERGY| Total FORCE_EVAL ( MIXED ) energy (a.u.):             2.258916653397419

 FOBSH| CASE1: no hop and no trivial crossing
 ENTER integrator.F
 STEP NUMBER                  =           14
 CPU TIME [s]                 =    2.7580814436078072E-002   4.6785587155526231     

 *******************************************************************************
 ENSEMBLE TYPE                =                                              NVE
 STEP NUMBER                  =                                               14
 TIME [fs]                    =                                         1.400000
 CONSERVED QUANTITY [hartree] =                               0.485823713998E+01

                                              INSTANTANEOUS             AVERAGES
 CPU TIME [s]                 =                        0.03                 4.68
 ENERGY DRIFT PER ATOM [K]    =         -0.416846800315E-01  -0.353246495626E-01
 POTENTIAL ENERGY[hartree]    =          0.225891665340E+01   0.230185156015E+01
 KINETIC ENERGY [hartree]     =          0.259932048658E+01   0.255640214540E+01
 TEMPERATURE [K]              =                     608.676              598.626
 *******************************************************************************

 FOBSH| Put former active state           3 in new active state           3
 RANDOM_NUMBER_HOPPING_PROBA  0.70993380124360117     
 FOBSH| ACTIVE STATE =            3

 ENERGY| Total FORCE_EVAL ( MIXED ) energy (a.u.):             2.267300744852805

 FOBSH| CASE1: no hop and no trivial crossing
 ENTER integrator.F
 STEP NUMBER                  =           15
 CPU TIME [s]                 =    2.7557465247809887E-002   4.3684919655323018     

 *******************************************************************************
 ENSEMBLE TYPE                =                                              NVE
 STEP NUMBER                  =                                               15
 TIME [fs]                    =                                         1.500000
 CONSERVED QUANTITY [hartree] =                               0.485824755293E+01

                                              INSTANTANEOUS             AVERAGES
 CPU TIME [s]                 =                        0.03                 4.37
 ENERGY DRIFT PER ATOM [K]    =         -0.380311839344E-01  -0.355050851874E-01
 POTENTIAL ENERGY[hartree]    =          0.226730074485E+01   0.229954817246E+01
 KINETIC ENERGY [hartree]     =          0.259094680808E+01   0.255870512292E+01
 TEMPERATURE [K]              =                     606.715              599.165
 *******************************************************************************

 FOBSH| Put former active state           3 in new active state           3
 RANDOM_NUMBER_HOPPING_PROBA  0.18135586630600045     
 FOBSH| ACTIVE STATE =            3

 ENERGY| Total FORCE_EVAL ( MIXED ) energy (a.u.):             2.278405522221300

 FOBSH| CASE1: no hop and no trivial crossing
 ENTER integrator.F
 STEP NUMBER                  =           16
 CPU TIME [s]                 =    2.7561455033719540E-002   4.0971838086261405     

 *******************************************************************************
 ENSEMBLE TYPE                =                                              NVE
 STEP NUMBER                  =                                               16
 TIME [fs]                    =                                         1.600000
 CONSERVED QUANTITY [hartree] =                               0.485826027893E+01

                                              INSTANTANEOUS             AVERAGES
 CPU TIME [s]                 =                        0.03                 4.10
 ENERGY DRIFT PER ATOM [K]    =         -0.335661318027E-01  -0.353839006009E-01
 POTENTIAL ENERGY[hartree]    =          0.227840552222E+01   0.229822675682E+01
 KINETIC ENERGY [hartree]     =          0.257985475671E+01   0.256002697503E+01
 TEMPERATURE [K]              =                     604.118              599.475
 *******************************************************************************

 FOBSH| Put former active state           3 in new active state           3
 RANDOM_NUMBER_HOPPING_PROBA  0.18975692136898631     
 FOBSH| ACTIVE STATE =            3

 ENERGY| Total FORCE_EVAL ( MIXED ) energy (a.u.):             2.292023810037306

 FOBSH| CASE1: no hop and no trivial crossing
 ENTER integrator.F
 STEP NUMBER                  =           17
 CPU TIME [s]                 =    2.7580768801271915E-002   3.8577953945187953     

 *******************************************************************************
 ENSEMBLE TYPE                =                                              NVE
 STEP NUMBER                  =                                               17
 TIME [fs]                    =                                         1.700000
 CONSERVED QUANTITY [hartree] =                               0.485827514211E+01

                                              INSTANTANEOUS             AVERAGES
 CPU TIME [s]                 =                        0.03                 3.86
 ENERGY DRIFT PER ATOM [K]    =         -0.283512248832E-01  -0.349702137940E-01
 POTENTIAL ENERGY[hartree]    =          0.229202381004E+01   0.229786187760E+01
 KINETIC ENERGY [hartree]     =          0.256625133208E+01   0.256039311368E+01
 TEMPERATURE [K]              =                     600.932              599.560
 *******************************************************************************

 FOBSH| Put former active state           3 in new active state           3
 RANDOM_NUMBER_HOPPING_PROBA  0.37603805032929283     
 FOBSH| ACTIVE STATE =            3

 ENERGY| Total FORCE_EVAL ( MIXED ) energy (a.u.):             2.307914052687719

 FOBSH| CASE1: no hop and no trivial crossing
 ENTER integrator.F
 STEP NUMBER                  =           18
 CPU TIME [s]                 =    2.7626755647361279E-002   3.6450082479148267     

 *******************************************************************************
 ENSEMBLE TYPE                =                                              NVE
 STEP NUMBER                  =                                               18
 TIME [fs]                    =                                         1.800000
 CONSERVED QUANTITY [hartree] =                               0.485829195280E+01

                                              INSTANTANEOUS             AVERAGES
 CPU TIME [s]                 =                        0.03                 3.65
 ENERGY DRIFT PER ATOM [K]    =         -0.224530156447E-01  -0.342748138968E-01
 POTENTIAL ENERGY[hartree]    =          0.230791405269E+01   0.229842033177E+01
 KINETIC ENERGY [hartree]     =          0.255037790011E+01   0.255983671292E+01
 TEMPERATURE [K]              =                     597.215              599.430
 *******************************************************************************

 FOBSH| Put former active state           3 in new active state           3
 RANDOM_NUMBER_HOPPING_PROBA  0.77366124673782377     
 FOBSH| ACTIVE STATE =            3

 ENERGY| Total FORCE_EVAL ( MIXED ) energy (a.u.):             2.325803560598186

 FOBSH| CASE1: no hop and no trivial crossing
 ENTER integrator.F
 STEP NUMBER                  =           19
 CPU TIME [s]                 =    2.7565430849790573E-002   3.4546165207008772     

 *******************************************************************************
 ENSEMBLE TYPE                =                                              NVE
 STEP NUMBER                  =                                               19
 TIME [fs]                    =                                         1.900000
 CONSERVED QUANTITY [hartree] =                               0.485831047644E+01

                                              INSTANTANEOUS             AVERAGES
 CPU TIME [s]                 =                        0.03                 3.45
 ENERGY DRIFT PER ATOM [K]    =         -0.159537984014E-01  -0.333105499233E-01
 POTENTIAL ENERGY[hartree]    =          0.232580356060E+01   0.229986155434E+01
 KINETIC ENERGY [hartree]     =          0.253250691584E+01   0.255839830255E+01
 TEMPERATURE [K]              =                     593.030              599.093
 *******************************************************************************

 FOBSH| Put former active state           3 in new active state           3
 RANDOM_NUMBER_HOPPING_PROBA  0.89342687810603316     
 FOBSH| ACTIVE STATE =            3

 ENERGY| Total FORCE_EVAL ( MIXED ) energy (a.u.):             2.345392203896496

 FOBSH| CASE1: no hop and no trivial crossing
 ENTER integrator.F
 STEP NUMBER                  =           20
 CPU TIME [s]                 =    2.7338458225131035E-002   3.2832526175770904     

 *******************************************************************************
 ENSEMBLE TYPE                =                                              NVE
 STEP NUMBER                  =                                               20
 TIME [fs]                    =                                         2.000000
 CONSERVED QUANTITY [hartree] =                               0.485833043462E+01

                                              INSTANTANEOUS             AVERAGES
 CPU TIME [s]                 =                        0.03                 3.28
 ENERGY DRIFT PER ATOM [K]    =         -0.895125460859E-02  -0.320925851576E-01
 POTENTIAL ENERGY[hartree]    =          0.234539220390E+01   0.230213808682E+01
 KINETIC ENERGY [hartree]     =          0.251293823073E+01   0.255612529896E+01
 TEMPERATURE [K]              =                     588.448              598.561
 *******************************************************************************

 FOBSH| *** OFF-DIAGONAL GRADIENT CALCULATION
 FOBSH| Put former active state           3 in new active state           3
 RANDOM_NUMBER_HOPPING_PROBA   4.0213527242749389E-002
 FOBSH| ACTIVE STATE =            3

 ENERGY| Total FORCE_EVAL ( MIXED ) energy (a.u.):             2.366356608605596

 FOBSH| CASE1: no hop and no trivial crossing
 ENTER integrator.F
 STEP NUMBER                  =           21
 CPU TIME [s]                 =    7.8609150834381580E-002   3.1306505477321993     

 *******************************************************************************
 ENSEMBLE TYPE                =                                              NVE
 STEP NUMBER                  =                                               21
 TIME [fs]                    =                                         2.100000
 CONSERVED QUANTITY [hartree] =                               0.485835159874E+01

                                              INSTANTANEOUS             AVERAGES
 CPU TIME [s]                 =                        0.08                 3.13
 ENERGY DRIFT PER ATOM [K]    =         -0.152559802897E-02  -0.306370143420E-01
 POTENTIAL ENERGY[hartree]    =          0.236635660861E+01   0.230519611167E+01
 KINETIC ENERGY [hartree]     =          0.249199499013E+01   0.255307147473E+01
 TEMPERATURE [K]              =                     583.544              597.846
 *******************************************************************************

 FOBSH| Put former active state           3 in new active state           3
 RANDOM_NUMBER_HOPPING_PROBA  0.98532566776213681     
 FOBSH| ACTIVE STATE =            3

 ENERGY| Total FORCE_EVAL ( MIXED ) energy (a.u.):             2.388354477597320

 FOBSH| CASE1: no hop and no trivial crossing
 ENTER integrator.F
 STEP NUMBER                  =           22
 CPU TIME [s]                 =    2.7453649789094925E-002   2.9895961432802403     

 *******************************************************************************
 ENSEMBLE TYPE                =                                              NVE
 STEP NUMBER                  =                                               22
 TIME [fs]                    =                                         2.200000
 CONSERVED QUANTITY [hartree] =                               0.485837366264E+01

                                              INSTANTANEOUS             AVERAGES
 CPU TIME [s]                 =                        0.03                 2.99
 ENERGY DRIFT PER ATOM [K]    =          0.621575787953E-02  -0.289618883319E-01
 POTENTIAL ENERGY[hartree]    =          0.238835447760E+01   0.230897603739E+01
 KINETIC ENERGY [hartree]     =          0.247001918504E+01   0.254929637065E+01
 TEMPERATURE [K]              =                     578.398              596.962
 *******************************************************************************

 FOBSH| Put former active state           3 in new active state           3
 RANDOM_NUMBER_HOPPING_PROBA  0.17605465571847009     
 FOBSH| ACTIVE STATE =            3

 ENERGY| Total FORCE_EVAL ( MIXED ) energy (a.u.):             2.411029276407915

 FOBSH| CASE1: no hop and no trivial crossing
 ENTER integrator.F
 STEP NUMBER                  =           23
 CPU TIME [s]                 =    2.7647552080452442E-002   2.8608157697498142     

 *******************************************************************************
 ENSEMBLE TYPE                =                                              NVE
 STEP NUMBER                  =                                               23
 TIME [fs]                    =                                         2.300000
 CONSERVED QUANTITY [hartree] =                               0.485839631842E+01

                                              INSTANTANEOUS             AVERAGES
 CPU TIME [s]                 =                        0.03                 2.86
 ENERGY DRIFT PER ATOM [K]    =          0.141647820409E-01  -0.270868157070E-01
 POTENTIAL ENERGY[hartree]    =          0.241102927641E+01   0.231341313474E+01
 KINETIC ENERGY [hartree]     =          0.244736704201E+01   0.254486466071E+01
 TEMPERATURE [K]              =                     573.093              595.924
 *******************************************************************************

 FOBSH| Put former active state           3 in new active state           3
 RANDOM_NUMBER_HOPPING_PROBA  0.99748923268117029     
 FOBSH| ACTIVE STATE =            3

 ENERGY| Total FORCE_EVAL ( MIXED ) energy (a.u.):             2.434015003559522

 FOBSH| CASE1: no hop and no trivial crossing
 ENTER integrator.F
 STEP NUMBER                  =           24
 CPU TIME [s]                 =    2.7052369900047779E-002   2.7427422947560740     

 *******************************************************************************
 ENSEMBLE TYPE                =                                              NVE
 STEP NUMBER                  =                                               24
 TIME [fs]                    =                                         2.400000
 CONSERVED QUANTITY [hartree] =                               0.485841925364E+01

                                              INSTANTANEOUS             AVERAGES
 CPU TIME [s]                 =                        0.03                 2.74
 ENERGY DRIFT PER ATOM [K]    =          0.222118511363E-01  -0.250327045885E-01
 POTENTIAL ENERGY[hartree]    =          0.243401500356E+01   0.231843821261E+01
 KINETIC ENERGY [hartree]     =          0.242440425009E+01   0.253984547694E+01
 TEMPERATURE [K]              =                     567.716              594.749
 *******************************************************************************

 FOBSH| Put former active state           3 in new active state           3
 RANDOM_NUMBER_HOPPING_PROBA   4.5956989181938995E-002
 FOBSH| ACTIVE STATE =            3

 ENERGY| Total FORCE_EVAL ( MIXED ) energy (a.u.):             2.456941145112256

 FOBSH| CASE1: no hop and no trivial crossing
 ENTER integrator.F
 STEP NUMBER                  =           25
 CPU TIME [s]                 =    2.7322853915393353E-002   2.6341255171224471     

 *******************************************************************************
 ENSEMBLE TYPE                =                                              NVE
 STEP NUMBER                  =                                               25
 TIME [fs]                    =                                         2.500000
 CONSERVED QUANTITY [hartree] =                               0.485844213295E+01

                                              INSTANTANEOUS             AVERAGES
 CPU TIME [s]                 =                        0.03                 2.63
 ENERGY DRIFT PER ATOM [K]    =          0.302393007109E-01  -0.228218243765E-01
 POTENTIAL ENERGY[hartree]    =          0.245694114511E+01   0.232397832991E+01
 KINETIC ENERGY [hartree]     =          0.240150098784E+01   0.253431169737E+01
 TEMPERATURE [K]              =                     562.353              593.453
 *******************************************************************************

 FOBSH| Put former active state           3 in new active state           3
 RANDOM_NUMBER_HOPPING_PROBA  0.36396543861013170     
 FOBSH| ACTIVE STATE =            3

 ENERGY| Total FORCE_EVAL ( MIXED ) energy (a.u.):             2.479437806172573

 FOBSH| CASE1: no hop and no trivial crossing
 ENTER integrator.F
 STEP NUMBER                  =           26
 CPU TIME [s]                 =    2.7511579915881157E-002   2.5338711349221947     

 *******************************************************************************
 ENSEMBLE TYPE                =                                              NVE
 STEP NUMBER                  =                                               26
 TIME [fs]                    =                                         2.600000
 CONSERVED QUANTITY [hartree] =                               0.485846466249E+01

                                              INSTANTANEOUS             AVERAGES
 CPU TIME [s]                 =                        0.03                 2.53
 ENERGY DRIFT PER ATOM [K]    =          0.381440307604E-01  -0.204769837943E-01
 POTENTIAL ENERGY[hartree]    =          0.247943780617E+01   0.232995754053E+01
 KINETIC ENERGY [hartree]     =          0.237902685632E+01   0.252833920349E+01
 TEMPERATURE [K]              =                     557.090              592.054
 *******************************************************************************

 FOBSH| Put former active state           3 in new active state           3
 RANDOM_NUMBER_HOPPING_PROBA  0.10128127016744209     
 FOBSH| ACTIVE STATE =            3

 ENERGY| Total FORCE_EVAL ( MIXED ) energy (a.u.):             2.501140669395130

 FOBSH| CASE1: no hop and no trivial crossing
 ENTER integrator.F
 STEP NUMBER                  =           27
 CPU TIME [s]                 =    2.7406778186559677E-002   2.4410391217097640     

 *******************************************************************************
 ENSEMBLE TYPE                =                                              NVE
 STEP NUMBER                  =                                               27
 TIME [fs]                    =                                         2.700000
 CONSERVED QUANTITY [hartree] =                               0.485848654838E+01

                                              INSTANTANEOUS             AVERAGES
 CPU TIME [s]                 =                        0.03                 2.44
 ENERGY DRIFT PER ATOM [K]    =          0.458229298270E-01  -0.180214314380E-01
 POTENTIAL ENERGY[hartree]    =          0.250114066940E+01   0.233629765642E+01
 KINETIC ENERGY [hartree]     =          0.235734587898E+01   0.252200611739E+01
 TEMPERATURE [K]              =                     552.013              590.571
 *******************************************************************************

 FOBSH| Put former active state           3 in new active state           3
 RANDOM_NUMBER_HOPPING_PROBA  0.11867251146675144     
 FOBSH| ACTIVE STATE =            3

 ENERGY| Total FORCE_EVAL ( MIXED ) energy (a.u.):             2.521695827395295

 FOBSH| CASE1: no hop and no trivial crossing
 ENTER integrator.F
 STEP NUMBER                  =           28
 CPU TIME [s]                 =    2.7488754130899906E-002   2.3548408942962329     

 *******************************************************************************
 ENSEMBLE TYPE                =                                              NVE
 STEP NUMBER                  =                                               28
 TIME [fs]                    =                                         2.800000
 CONSERVED QUANTITY [hartree] =                               0.485850747696E+01

                                              INSTANTANEOUS             AVERAGES
 CPU TIME [s]                 =                        0.03                 2.35
 ENERGY DRIFT PER ATOM [K]    =          0.531659472131E-01  -0.154790250576E-01
 POTENTIAL ENERGY[hartree]    =          0.252169582740E+01   0.234291901967E+01
 KINETIC ENERGY [hartree]     =          0.233681164957E+01   0.251539202926E+01
 TEMPERATURE [K]              =                     547.205              589.023
 *******************************************************************************

 FOBSH| Put former active state           3 in new active state           3
 RANDOM_NUMBER_HOPPING_PROBA  0.89111076769210396     
 FOBSH| ACTIVE STATE =            3

 ENERGY| Total FORCE_EVAL ( MIXED ) energy (a.u.):             2.540764631138143

 FOBSH| CASE1: no hop and no trivial crossing
 ENTER integrator.F
 STEP NUMBER                  =           29
 CPU TIME [s]                 =    2.7285531163215637E-002   2.2745803645330258     

 *******************************************************************************
 ENSEMBLE TYPE                =                                              NVE
 STEP NUMBER                  =                                               29
 TIME [fs]                    =                                         2.900000
 CONSERVED QUANTITY [hartree] =                               0.485852716139E+01

                                              INSTANTANEOUS             AVERAGES
 CPU TIME [s]                 =                        0.03                 2.27
 ENERGY DRIFT PER ATOM [K]    =          0.600724404598E-01  -0.128738021087E-01
 POTENTIAL ENERGY[hartree]    =          0.254076463114E+01   0.234974128213E+01
 KINETIC ENERGY [hartree]     =          0.231776253025E+01   0.250857721895E+01
 TEMPERATURE [K]              =                     542.744              587.427
 *******************************************************************************

 FOBSH| Put former active state           3 in new active state           3
 RANDOM_NUMBER_HOPPING_PROBA  0.27596159707755136     
 FOBSH| ACTIVE STATE =            3

 ENERGY| Total FORCE_EVAL ( MIXED ) energy (a.u.):             2.558028297849452

 FOBSH| CASE1: no hop and no trivial crossing
 ENTER integrator.F
 STEP NUMBER                  =           30
 CPU TIME [s]                 =    2.7326276525855064E-002   2.1996718949327865     

 *******************************************************************************
 ENSEMBLE TYPE                =                                              NVE
 STEP NUMBER                  =                                               30
 TIME [fs]                    =                                         3.000000
 CONSERVED QUANTITY [hartree] =                               0.485854534594E+01

                                              INSTANTANEOUS             AVERAGES
 CPU TIME [s]                 =                        0.03                 2.20
 ENERGY DRIFT PER ATOM [K]    =          0.664526839566E-01  -0.102295859066E-01
 POTENTIAL ENERGY[hartree]    =          0.255802829785E+01   0.235668418265E+01
 KINETIC ENERGY [hartree]     =          0.230051704809E+01   0.250164187992E+01
 TEMPERATURE [K]              =                     538.706              585.803
 *******************************************************************************

 FOBSH| *** OFF-DIAGONAL GRADIENT CALCULATION
 FOBSH| Put former active state           3 in new active state           3
 RANDOM_NUMBER_HOPPING_PROBA  0.13795193207776218     
 FOBSH| ACTIVE STATE =            3

 ENERGY| Total FORCE_EVAL ( MIXED ) energy (a.u.):             2.573192201520972

 FOBSH| CASE1: no hop and no trivial crossing
 ENTER integrator.F
 STEP NUMBER                  =           31
 CPU TIME [s]                 =    7.8291516751050949E-002   2.1312402698301498     

 *******************************************************************************
 ENSEMBLE TYPE                =                                              NVE
 STEP NUMBER                  =                                               31
 TIME [fs]                    =                                         3.100000
 CONSERVED QUANTITY [hartree] =                               0.485856178514E+01

                                              INSTANTANEOUS             AVERAGES
 CPU TIME [s]                 =                        0.08                 2.13
 ENERGY DRIFT PER ATOM [K]    =          0.722205550666E-01  -0.756990393967E-02
 POTENTIAL ENERGY[hartree]    =          0.257319220152E+01   0.236366831230E+01
 KINETIC ENERGY [hartree]     =          0.228536958362E+01   0.249466535423E+01
 TEMPERATURE [K]              =                     535.159              584.169
 *******************************************************************************

 FOBSH| Put former active state           3 in new active state           3
 RANDOM_NUMBER_HOPPING_PROBA  0.17326673237594786     
 FOBSH| ACTIVE STATE =            3

 ENERGY| Total FORCE_EVAL ( MIXED ) energy (a.u.):             2.585989942478421

 FOBSH| CASE1: no hop and no trivial crossing
 ENTER integrator.F
 STEP NUMBER                  =           32
 CPU TIME [s]                 =    2.7306636795401573E-002   2.0654923437978141     

 *******************************************************************************
 ENSEMBLE TYPE                =                                              NVE
 STEP NUMBER                  =                                               32
 TIME [fs]                    =                                         3.200000
 CONSERVED QUANTITY [hartree] =                               0.485857622388E+01

                                              INSTANTANEOUS             AVERAGES
 CPU TIME [s]                 =                        0.03                 2.07
 ENERGY DRIFT PER ATOM [K]    =          0.772865403190E-01  -0.491814005659E-02
 POTENTIAL ENERGY[hartree]    =          0.258598994248E+01   0.237061586324E+01
 KINETIC ENERGY [hartree]     =          0.227258628140E+01   0.248772538320E+01
 TEMPERATURE [K]              =                     532.165              582.544
 *******************************************************************************

 FOBSH| Put former active state           3 in new active state           3
 RANDOM_NUMBER_HOPPING_PROBA  0.45948640433446791     
 FOBSH| ACTIVE STATE =            3

 ENERGY| Total FORCE_EVAL ( MIXED ) energy (a.u.):             2.596187082659511

 FOBSH| CASE1: no hop and no trivial crossing
 ENTER integrator.F
 STEP NUMBER                  =           33
 CPU TIME [s]                 =    2.6995016261935234E-002   2.0037196975088483     

 *******************************************************************************
 ENSEMBLE TYPE                =                                              NVE
 STEP NUMBER                  =                                               33
 TIME [fs]                    =                                         3.300000
 CONSERVED QUANTITY [hartree] =                               0.485858847919E+01

                                              INSTANTANEOUS             AVERAGES
 CPU TIME [s]                 =                        0.03                 2.00
 ENERGY DRIFT PER ATOM [K]    =          0.815864489191E-01  -0.229678887551E-02
 POTENTIAL ENERGY[hartree]    =          0.259618708266E+01   0.237745135474E+01
 KINETIC ENERGY [hartree]     =          0.226240139653E+01   0.248089738361E+01
 TEMPERATURE [K]              =                     529.781              580.945
 *******************************************************************************

 FOBSH| New map:            1           2           3           0           0           6           7           8
 FOBSH! New map again:           1           2           3           0           0           6           7           8
 FOBSH| Put former active state           3 in new active state           3
 RANDOM_NUMBER_HOPPING_PROBA  0.93473997256390629     
 FOBSH| ACTIVE STATE =            3

 ENERGY| Total FORCE_EVAL ( MIXED ) energy (a.u.):             2.603584248783121

 FOBSH| CASE1: no hop and no trivial crossing
 ENTER integrator.F
 STEP NUMBER                  =           34
 CPU TIME [s]                 =    2.7239200659096241E-002   1.9455879181897378     

 *******************************************************************************
 ENSEMBLE TYPE                =                                              NVE
 STEP NUMBER                  =                                               34
 TIME [fs]                    =                                         3.400000
 CONSERVED QUANTITY [hartree] =                               0.485859836558E+01

                                              INSTANTANEOUS             AVERAGES
 CPU TIME [s]                 =                        0.03                 1.95
 ENERGY DRIFT PER ATOM [K]    =          0.850551948790E-01   0.272387117270E-03
 POTENTIAL ENERGY[hartree]    =          0.260358424878E+01   0.238410232221E+01
 KINETIC ENERGY [hartree]     =          0.225501411680E+01   0.247425375811E+01
 TEMPERATURE [K]              =                     528.051              579.389
 *******************************************************************************

 FOBSH| New map:            1           2           3           0           0           6           7           8
 FOBSH! New map again:           1           2           3           0           0           6           7           8
 FOBSH| Put former active state           3 in new active state           3
 RANDOM_NUMBER_HOPPING_PROBA  0.22829865023636245     
 FOBSH| ACTIVE STATE =            3

 ENERGY| Total FORCE_EVAL ( MIXED ) energy (a.u.):             2.608019957820975

 FOBSH| CASE1: no hop and no trivial crossing
 ENTER integrator.F
 STEP NUMBER                  =           35
 CPU TIME [s]                 =    2.7227715589106083E-002   1.8907776266868626     

 *******************************************************************************
 ENSEMBLE TYPE                =                                              NVE
 STEP NUMBER                  =                                               35
 TIME [fs]                    =                                         3.500000
 CONSERVED QUANTITY [hartree] =                               0.485860573587E+01

                                              INSTANTANEOUS             AVERAGES
 CPU TIME [s]                 =                        0.03                 1.89
 ENERGY DRIFT PER ATOM [K]    =          0.876411372001E-01   0.276863711964E-02
 POTENTIAL ENERGY[hartree]    =          0.260801995782E+01   0.239049996894E+01
 KINETIC ENERGY [hartree]     =          0.225058577804E+01   0.246786324440E+01
 TEMPERATURE [K]              =                     527.014              577.893
 *******************************************************************************

 FOBSH| Put former active state           3 in new active state           3
 RANDOM_NUMBER_HOPPING_PROBA  0.59718606230213800     
 FOBSH| ACTIVE STATE =            3

 ENERGY| Total FORCE_EVAL ( MIXED ) energy (a.u.):             2.609372924927213

 FOBSH| CASE1: no hop and no trivial crossing
 ENTER integrator.F
 STEP NUMBER                  =           36
 CPU TIME [s]                 =    2.7128798887133598E-002   1.8390096036924255     

 *******************************************************************************
 ENSEMBLE TYPE                =                                              NVE
 STEP NUMBER                  =                                               36
 TIME [fs]                    =                                         3.600000
 CONSERVED QUANTITY [hartree] =                               0.485861050311E+01

                                              INSTANTANEOUS             AVERAGES
 CPU TIME [s]                 =                        0.03                 1.84
 ENERGY DRIFT PER ATOM [K]    =          0.893137750565E-01   0.517266872899E-02
 POTENTIAL ENERGY[hartree]    =          0.260937292493E+01   0.239657977327E+01
 KINETIC ENERGY [hartree]     =          0.224923757818E+01   0.246179030922E+01
 TEMPERATURE [K]              =                     526.698              576.471
 *******************************************************************************

 FOBSH| Put former active state           3 in new active state           3
 RANDOM_NUMBER_HOPPING_PROBA  0.67469586020725292     
 FOBSH| ACTIVE STATE =            3

 ENERGY| Total FORCE_EVAL ( MIXED ) energy (a.u.):             2.607563702486572

 FOBSH| CASE1: no hop and no trivial crossing
 ENTER integrator.F
 STEP NUMBER                  =           37
 CPU TIME [s]                 =    2.7185506187379360E-002   1.7900413848409380     

 *******************************************************************************
 ENSEMBLE TYPE                =                                              NVE
 STEP NUMBER                  =                                               37
 TIME [fs]                    =                                         3.700000
 CONSERVED QUANTITY [hartree] =                               0.485861256006E+01

                                              INSTANTANEOUS             AVERAGES
 CPU TIME [s]                 =                        0.03                 1.79
 ENERGY DRIFT PER ATOM [K]    =          0.900354788265E-01   0.746625819109E-02
 POTENTIAL ENERGY[hartree]    =          0.260756370249E+01   0.240228204163E+01
 KINETIC ENERGY [hartree]     =          0.225104885757E+01   0.245609459432E+01
 TEMPERATURE [K]              =                     527.122              575.137
 *******************************************************************************

 FOBSH| Put former active state           3 in new active state           3
 RANDOM_NUMBER_HOPPING_PROBA   5.6658176887990165E-002
 FOBSH| ACTIVE STATE =            3

 ENERGY| Total FORCE_EVAL ( MIXED ) energy (a.u.):             2.602556003960897

 FOBSH| CASE1: no hop and no trivial crossing
 ENTER integrator.F
 STEP NUMBER                  =           38
 CPU TIME [s]                 =    2.7177709154784679E-002   1.7436502354807759     

 *******************************************************************************
 ENSEMBLE TYPE                =                                              NVE
 STEP NUMBER                  =                                               38
 TIME [fs]                    =                                         3.800000
 CONSERVED QUANTITY [hartree] =                               0.485861191607E+01

                                              INSTANTANEOUS             AVERAGES
 CPU TIME [s]                 =                        0.03                 1.74
 ENERGY DRIFT PER ATOM [K]    =          0.898095295563E-01   0.963318638491E-02
 POTENTIAL ENERGY[hartree]    =          0.260255600396E+01   0.240755240906E+01
 KINETIC ENERGY [hartree]     =          0.225605591211E+01   0.245083041847E+01
 TEMPERATURE [K]              =                     528.295              573.904
 *******************************************************************************

 FOBSH| Put former active state           3 in new active state           3
 RANDOM_NUMBER_HOPPING_PROBA  0.42939750927376608     
 FOBSH| ACTIVE STATE =            3

 ENERGY| Total FORCE_EVAL ( MIXED ) energy (a.u.):             2.594357187948678

 FOBSH| CASE1: no hop and no trivial crossing
 ENTER integrator.F
 STEP NUMBER                  =           39
 CPU TIME [s]                 =    2.6976247318089008E-002   1.6996329537330146     

 *******************************************************************************
 ENSEMBLE TYPE                =                                              NVE
 STEP NUMBER                  =                                               39
 TIME [fs]                    =                                         3.900000
 CONSERVED QUANTITY [hartree] =                               0.485860853006E+01

                                              INSTANTANEOUS             AVERAGES
 CPU TIME [s]                 =                        0.03                 1.70
 ENERGY DRIFT PER ATOM [K]    =          0.886215095902E-01   0.116585280056E-01
 POTENTIAL ENERGY[hartree]    =          0.259435718795E+01   0.241234227519E+01
 KINETIC ENERGY [hartree]     =          0.226425134211E+01   0.244604633959E+01
 TEMPERATURE [K]              =                     530.214              572.784
 *******************************************************************************

 FOBSH| Put former active state           3 in new active state           3
 RANDOM_NUMBER_HOPPING_PROBA  0.38368037990422899     
 FOBSH| ACTIVE STATE =            3

 ENERGY| Total FORCE_EVAL ( MIXED ) energy (a.u.):             2.583018447728859

 FOBSH| CASE1: no hop and no trivial crossing
 ENTER integrator.F
 STEP NUMBER                  =           40
 CPU TIME [s]                 =    2.7180304750800133E-002   1.6578216375084596     

 *******************************************************************************
 ENSEMBLE TYPE                =                                              NVE
 STEP NUMBER                  =                                               40
 TIME [fs]                    =                                         4.000000
 CONSERVED QUANTITY [hartree] =                               0.485860245127E+01

                                              INSTANTANEOUS             AVERAGES
 CPU TIME [s]                 =                        0.03                 1.66
 ENERGY DRIFT PER ATOM [K]    =          0.864887010964E-01   0.135292823328E-01
 POTENTIAL ENERGY[hartree]    =          0.258301844773E+01   0.241660917950E+01
 KINETIC ENERGY [hartree]     =          0.227558400354E+01   0.244178478119E+01
 TEMPERATURE [K]              =                     532.867              571.786
 *******************************************************************************

 FOBSH| *** OFF-DIAGONAL GRADIENT CALCULATION
 FOBSH| Put former active state           3 in new active state           3
 RANDOM_NUMBER_HOPPING_PROBA   9.6583165714819563E-002
 FOBSH| ACTIVE STATE =            3

 ENERGY| Total FORCE_EVAL ( MIXED ) energy (a.u.):             2.568634248266015

 FOBSH| CASE1: no hop and no trivial crossing
 ENTER integrator.F
 STEP NUMBER                  =           41
 CPU TIME [s]                 =    7.8264615498483181E-002   1.6192958564838258     

 *******************************************************************************
 ENSEMBLE TYPE                =                                              NVE
 STEP NUMBER                  =                                               41
 TIME [fs]                    =                                         4.100000
 CONSERVED QUANTITY [hartree] =                               0.485859376468E+01

                                              INSTANTANEOUS             AVERAGES
 CPU TIME [s]                 =                        0.08                 1.62
 ENERGY DRIFT PER ATOM [K]    =          0.834409172080E-01   0.152344441591E-01
 POTENTIAL ENERGY[hartree]    =          0.256863424827E+01   0.242031710801E+01
 KINETIC ENERGY [hartree]     =          0.228995951641E+01   0.243808172595E+01
 TEMPERATURE [K]              =                     536.234              570.919
 *******************************************************************************

 FOBSH| Put former active state           3 in new active state           3
 RANDOM_NUMBER_HOPPING_PROBA  0.13946919027007920     
 FOBSH| ACTIVE STATE =            3

 ENERGY| Total FORCE_EVAL ( MIXED ) energy (a.u.):             2.551341211577613

 FOBSH| CASE1: no hop and no trivial crossing
 ENTER integrator.F
 STEP NUMBER                  =           42
 CPU TIME [s]                 =    2.6944043114781380E-002   1.5813827180702771     

 *******************************************************************************
 ENSEMBLE TYPE                =                                              NVE
 STEP NUMBER                  =                                               42
 TIME [fs]                    =                                         4.200000
 CONSERVED QUANTITY [hartree] =                               0.485858253364E+01

                                              INSTANTANEOUS             AVERAGES
 CPU TIME [s]                 =                        0.03                 1.58
 ENERGY DRIFT PER ATOM [K]    =          0.795003863368E-01   0.167645856395E-01
 POTENTIAL ENERGY[hartree]    =          0.255134121158E+01   0.242343672952E+01
 KINETIC ENERGY [hartree]     =          0.230724132206E+01   0.243496647824E+01
 TEMPERATURE [K]              =                     540.281              570.190
 *******************************************************************************

 FOBSH| Put former active state           3 in new active state           3
 RANDOM_NUMBER_HOPPING_PROBA  0.32230525371606761     
 FOBSH| ACTIVE STATE =            3

 ENERGY| Total FORCE_EVAL ( MIXED ) energy (a.u.):             2.531316599284267

 FOBSH| CASE1: no hop and no trivial crossing
 ENTER integrator.F
 STEP NUMBER                  =           43
 CPU TIME [s]                 =    2.7039972133934498E-002   1.5452352123508273     

 *******************************************************************************
 ENSEMBLE TYPE                =                                              NVE
 STEP NUMBER                  =                                               43
 TIME [fs]                    =                                         4.300000
 CONSERVED QUANTITY [hartree] =                               0.485856892276E+01

                                              INSTANTANEOUS             AVERAGES
 CPU TIME [s]                 =                        0.03                 1.55
 ENERGY DRIFT PER ATOM [K]    =          0.747248644574E-01   0.181124991004E-01
 POTENTIAL ENERGY[hartree]    =          0.253131659928E+01   0.242594556370E+01
 KINETIC ENERGY [hartree]     =          0.232725232348E+01   0.243246149789E+01
 TEMPERATURE [K]              =                     544.966              569.603
 *******************************************************************************

 FOBSH| Put former active state           3 in new active state           3
 RANDOM_NUMBER_HOPPING_PROBA  0.17560467299208327     
 FOBSH| ACTIVE STATE =            3

 ENERGY| Total FORCE_EVAL ( MIXED ) energy (a.u.):             2.508775966990596

 FOBSH| CASE1: no hop and no trivial crossing
 ENTER integrator.F
 STEP NUMBER                  =           44
 CPU TIME [s]                 =    2.7066455222666264E-002   1.5107313769615509     

 *******************************************************************************
 ENSEMBLE TYPE                =                                              NVE
 STEP NUMBER                  =                                               44
 TIME [fs]                    =                                         4.400000
 CONSERVED QUANTITY [hartree] =                               0.485855307473E+01

                                              INSTANTANEOUS             AVERAGES
 CPU TIME [s]                 =                        0.03                 1.51
 ENERGY DRIFT PER ATOM [K]    =          0.691644130622E-01   0.192727698722E-01
 POTENTIAL ENERGY[hartree]    =          0.250877596699E+01   0.242782807287E+01
 KINETIC ENERGY [hartree]     =          0.234977710774E+01   0.243058230721E+01
 TEMPERATURE [K]              =                     550.241              569.163
 *******************************************************************************

 FOBSH| Put former active state           3 in new active state           3
 RANDOM_NUMBER_HOPPING_PROBA  0.78778040149675777     
 FOBSH| ACTIVE STATE =            3

 ENERGY| Total FORCE_EVAL ( MIXED ) energy (a.u.):             2.483970598326544

 FOBSH| CASE1: no hop and no trivial crossing
 ENTER integrator.F
 STEP NUMBER                  =           45
 CPU TIME [s]                 =    2.7130632661283016E-002   1.4777624715326561     

 *******************************************************************************
 ENSEMBLE TYPE                =                                              NVE
 STEP NUMBER                  =                                               45
 TIME [fs]                    =                                         4.500000
 CONSERVED QUANTITY [hartree] =                               0.485853520572E+01

                                              INSTANTANEOUS             AVERAGES
 CPU TIME [s]                 =                        0.03                 1.48
 ENERGY DRIFT PER ATOM [K]    =          0.628948794323E-01   0.202421500847E-01
 POTENTIAL ENERGY[hartree]    =          0.248397059833E+01   0.242907568454E+01
 KINETIC ENERGY [hartree]     =          0.237456460739E+01   0.242933746943E+01
 TEMPERATURE [K]              =                     556.045              568.871
 *******************************************************************************

 FOBSH| Put former active state           3 in new active state           3
 RANDOM_NUMBER_HOPPING_PROBA  0.95198882604336277     
 FOBSH| ACTIVE STATE =            3

 ENERGY| Total FORCE_EVAL ( MIXED ) energy (a.u.):             2.457184363932796

 FOBSH| CASE1: no hop and no trivial crossing
 ENTER integrator.F
 STEP NUMBER                  =           46
 CPU TIME [s]                 =    2.7340813539922237E-002   1.4462315659241183     

 *******************************************************************************
 ENSEMBLE TYPE                =                                              NVE
 STEP NUMBER                  =                                               46
 TIME [fs]                    =                                         4.600000
 CONSERVED QUANTITY [hartree] =                               0.485851553934E+01

                                              INSTANTANEOUS             AVERAGES
 CPU TIME [s]                 =                        0.03                 1.45
 ENERGY DRIFT PER ATOM [K]    =          0.559947179531E-01   0.210193798209E-01
 POTENTIAL ENERGY[hartree]    =          0.245718436393E+01   0.242968674279E+01
 KINETIC ENERGY [hartree]     =          0.240133117540E+01   0.242872863695E+01
 TEMPERATURE [K]              =                     562.313              568.729
 *******************************************************************************

 FOBSH| Put former active state           3 in new active state           3
 RANDOM_NUMBER_HOPPING_PROBA  0.60481166532282404     
 FOBSH| ACTIVE STATE =            3

 ENERGY| Total FORCE_EVAL ( MIXED ) energy (a.u.):             2.428730145775351

 FOBSH| CASE1: no hop and no trivial crossing
 ENTER integrator.F
 STEP NUMBER                  =           47
 CPU TIME [s]                 =    2.7075778692960739E-002   1.4160367619404768     

 *******************************************************************************
 ENSEMBLE TYPE                =                                              NVE
 STEP NUMBER                  =                                               47
 TIME [fs]                    =                                         4.700000
 CONSERVED QUANTITY [hartree] =                               0.485849430799E+01

                                              INSTANTANEOUS             AVERAGES
 CPU TIME [s]                 =                        0.03                 1.42
 ENERGY DRIFT PER ATOM [K]    =          0.485454713415E-01   0.216050413427E-01
 POTENTIAL ENERGY[hartree]    =          0.242873014578E+01   0.242966638966E+01
 KINETIC ENERGY [hartree]     =          0.242976416221E+01   0.242875066941E+01
 TEMPERATURE [K]              =                     568.971              568.734
 *******************************************************************************

 FOBSH| Put former active state           3 in new active state           3
 RANDOM_NUMBER_HOPPING_PROBA  0.79196789831140157     
 FOBSH| ACTIVE STATE =            3

 ENERGY| Total FORCE_EVAL ( MIXED ) energy (a.u.):             2.398945972124879

 FOBSH| CASE1: no hop and no trivial crossing
 ENTER integrator.F
 STEP NUMBER                  =           48
 CPU TIME [s]                 =    2.6923768222332001E-002   1.3870969079046820     

 *******************************************************************************
 ENSEMBLE TYPE                =                                              NVE
 STEP NUMBER                  =                                               48
 TIME [fs]                    =                                         4.800000
 CONSERVED QUANTITY [hartree] =                               0.485847177773E+01

                                              INSTANTANEOUS             AVERAGES
 CPU TIME [s]                 =                        0.03                 1.39
 ENERGY DRIFT PER ATOM [K]    =          0.406404884012E-01   0.220016131564E-01
 POTENTIAL ENERGY[hartree]    =          0.239894597212E+01   0.242902638096E+01
 KINETIC ENERGY [hartree]     =          0.245952580560E+01   0.242939181808E+01
 TEMPERATURE [K]              =                     575.941              568.884
 *******************************************************************************

 FOBSH| Put former active state           3 in new active state           3
 RANDOM_NUMBER_HOPPING_PROBA  0.35144938693881794     
 FOBSH| ACTIVE STATE =            3

 ENERGY| Total FORCE_EVAL ( MIXED ) energy (a.u.):             2.368190899547926

 FOBSH| CASE1: no hop and no trivial crossing
 ENTER integrator.F
 STEP NUMBER                  =           49
 CPU TIME [s]                 =    2.7204601094126701E-002   1.3593440036840583     

 *******************************************************************************
 ENSEMBLE TYPE                =                                              NVE
 STEP NUMBER                  =                                               49
 TIME [fs]                    =                                         4.900000
 CONSERVED QUANTITY [hartree] =                               0.485844820843E+01

                                              INSTANTANEOUS             AVERAGES
 CPU TIME [s]                 =                        0.03                 1.36
 ENERGY DRIFT PER ATOM [K]    =          0.323709493496E-01   0.222132322624E-01
 POTENTIAL ENERGY[hartree]    =          0.236819089955E+01   0.242778484053E+01
 KINETIC ENERGY [hartree]     =          0.249025730889E+01   0.243063397095E+01
 TEMPERATURE [K]              =                     583.137              569.175
 *******************************************************************************

 FOBSH| Put former active state           3 in new active state           3
 RANDOM_NUMBER_HOPPING_PROBA   4.6736400276695213E-002
 FOBSH| ACTIVE STATE =            3

 ENERGY| Total FORCE_EVAL ( MIXED ) energy (a.u.):             2.336840751908501

 FOBSH| CASE1: no hop and no trivial crossing
 ENTER integrator.F
 STEP NUMBER                  =           50
 CPU TIME [s]                 =    2.7207498438656330E-002   1.3327012735791501     

 *******************************************************************************
 ENSEMBLE TYPE                =                                              NVE
 STEP NUMBER                  =                                               50
[...]
 ENSEMBLE TYPE                =                                              NVE
 STEP NUMBER                  =                                              190
 TIME [fs]                    =                                        19.000000
 CONSERVED QUANTITY [hartree] =                               0.485840158736E+01

                                              INSTANTANEOUS             AVERAGES
 CPU TIME [s]                 =                        0.03                 0.38
 ENERGY DRIFT PER ATOM [K]    =          0.160134442787E-01   0.860641839453E-02
 POTENTIAL ENERGY[hartree]    =          0.248287064979E+01   0.239114750904E+01
 KINETIC ENERGY [hartree]     =          0.237553093757E+01   0.246723285225E+01
 TEMPERATURE [K]              =                     556.272              577.745
 *******************************************************************************

 FOBSH| *** OFF-DIAGONAL GRADIENT CALCULATION
 FOBSH| Put former active state           1 in new active state           1
 RANDOM_NUMBER_HOPPING_PROBA  0.96979538647398367     
 FOBSH| ACTIVE STATE =            1

 ENERGY| Total FORCE_EVAL ( MIXED ) energy (a.u.):             2.513686698056850

 FOBSH| CASE1: no hop and no trivial crossing
 ENTER integrator.F
 STEP NUMBER                  =          191
 CPU TIME [s]                 =    7.7127387747168541E-002  0.37399482781174753     

 *******************************************************************************
 ENSEMBLE TYPE                =                                              NVE
 STEP NUMBER                  =                                              191
 TIME [fs]                    =                                        19.100000
 CONSERVED QUANTITY [hartree] =                               0.485842575958E+01

                                              INSTANTANEOUS             AVERAGES
 CPU TIME [s]                 =                        0.08                 0.37
 ENERGY DRIFT PER ATOM [K]    =          0.244945276048E-01   0.868960221239E-02
 POTENTIAL ENERGY[hartree]    =          0.251368669806E+01   0.239178907548E+01
 KINETIC ENERGY [hartree]     =          0.234473906152E+01   0.246659152350E+01
 TEMPERATURE [K]              =                     549.061              577.595
 *******************************************************************************

 FOBSH| Put former active state           1 in new active state           1
 RANDOM_NUMBER_HOPPING_PROBA  0.34074259243776539     
 FOBSH| ACTIVE STATE =            1

 ENERGY| Total FORCE_EVAL ( MIXED ) energy (a.u.):             2.544015830948268

 FOBSH| CASE1: no hop and no trivial crossing
 ENTER integrator.F
 STEP NUMBER                  =          192
 CPU TIME [s]                 =    2.7031808160245419E-002  0.37218772875106265     

 *******************************************************************************
 ENSEMBLE TYPE                =                                              NVE
 STEP NUMBER                  =                                              192
 TIME [fs]                    =                                        19.200000
 CONSERVED QUANTITY [hartree] =                               0.485844967356E+01

                                              INSTANTANEOUS             AVERAGES
 CPU TIME [s]                 =                        0.03                 0.37
 ENERGY DRIFT PER ATOM [K]    =          0.328850032216E-01   0.881561992598E-02
 POTENTIAL ENERGY[hartree]    =          0.254401583095E+01   0.239258192316E+01
 KINETIC ENERGY [hartree]     =          0.231443384261E+01   0.246579903558E+01
 TEMPERATURE [K]              =                     541.965              577.410
 *******************************************************************************

 FOBSH| Put former active state           1 in new active state           1
 RANDOM_NUMBER_HOPPING_PROBA  0.54636703167211798     
 FOBSH| ACTIVE STATE =            1

 ENERGY| Total FORCE_EVAL ( MIXED ) energy (a.u.):             2.573480163807922

 FOBSH| CASE1: no hop and no trivial crossing
 ENTER integrator.F
 STEP NUMBER                  =          193
 CPU TIME [s]                 =    2.6806408539414406E-002  0.37039818823183135     

 *******************************************************************************
 ENSEMBLE TYPE                =                                              NVE
 STEP NUMBER                  =                                              193
 TIME [fs]                    =                                        19.300000
 CONSERVED QUANTITY [hartree] =                               0.485847306023E+01

                                              INSTANTANEOUS             AVERAGES
 CPU TIME [s]                 =                        0.03                 0.37
 ENERGY DRIFT PER ATOM [K]    =          0.410904669602E-01   0.898284711268E-02
 POTENTIAL ENERGY[hartree]    =          0.257348016381E+01   0.239351921974E+01
 KINETIC ENERGY [hartree]     =          0.228499289642E+01   0.246486221621E+01
 TEMPERATURE [K]              =                     535.071              577.190
 *******************************************************************************

 FOBSH| Put former active state           1 in new active state           1
 RANDOM_NUMBER_HOPPING_PROBA  0.62264551234204946     
 FOBSH| ACTIVE STATE =            1

 ENERGY| Total FORCE_EVAL ( MIXED ) energy (a.u.):             2.601710258666427

 FOBSH| CASE1: no hop and no trivial crossing
 ENTER integrator.F
 STEP NUMBER                  =          194
 CPU TIME [s]                 =    2.6964300312101841E-002  0.36862791045904919     

 *******************************************************************************
 ENSEMBLE TYPE                =                                              NVE
 STEP NUMBER                  =                                              194
 TIME [fs]                    =                                        19.400000
 CONSERVED QUANTITY [hartree] =                               0.485849562662E+01

                                              INSTANTANEOUS             AVERAGES
 CPU TIME [s]                 =                        0.03                 0.37
 ENERGY DRIFT PER ATOM [K]    =          0.490081292794E-01   0.918916300014E-02
 POTENTIAL ENERGY[hartree]    =          0.260171025867E+01   0.239459236943E+01
 KINETIC ENERGY [hartree]     =          0.225678536796E+01   0.246378965514E+01
 TEMPERATURE [K]              =                     528.465              576.939
 *******************************************************************************

 FOBSH| Put former active state           1 in new active state           1
 RANDOM_NUMBER_HOPPING_PROBA  0.38012573194367633     
 FOBSH| ACTIVE STATE =            1

 ENERGY| Total FORCE_EVAL ( MIXED ) energy (a.u.):             2.628349762408653

 FOBSH| CASE1: no hop and no trivial crossing
 ENTER integrator.F
 STEP NUMBER                  =          195
 CPU TIME [s]                 =    2.7044903486967087E-002  0.36687620273098726     

 *******************************************************************************
 ENSEMBLE TYPE                =                                              NVE
 STEP NUMBER                  =                                              195
 TIME [fs]                    =                                        19.500000
 CONSERVED QUANTITY [hartree] =                               0.485851709875E+01

                                              INSTANTANEOUS             AVERAGES
 CPU TIME [s]                 =                        0.03                 0.37
 ENERGY DRIFT PER ATOM [K]    =          0.565418546329E-01   0.943199731620E-02
 POTENTIAL ENERGY[hartree]    =          0.262834976241E+01   0.239579112529E+01
 KINETIC ENERGY [hartree]     =          0.223016733634E+01   0.246259159196E+01
 TEMPERATURE [K]              =                     522.232              576.659
 *******************************************************************************

 FOBSH| Put former active state           1 in new active state           1
 RANDOM_NUMBER_HOPPING_PROBA  0.88373341500213154     
 FOBSH| ACTIVE STATE =            1

 ENERGY| Total FORCE_EVAL ( MIXED ) energy (a.u.):             2.653059835694912

 FOBSH| CASE1: no hop and no trivial crossing
 ENTER integrator.F
 STEP NUMBER                  =          196
 CPU TIME [s]                 =    2.6984520256519318E-002  0.36514206149387257     

 *******************************************************************************
 ENSEMBLE TYPE                =                                              NVE
 STEP NUMBER                  =                                              196
 TIME [fs]                    =                                        19.600000
 CONSERVED QUANTITY [hartree] =                               0.485853720930E+01

                                              INSTANTANEOUS             AVERAGES
 CPU TIME [s]                 =                        0.03                 0.37
 ENERGY DRIFT PER ATOM [K]    =          0.635978582381E-01   0.970835374948E-02
 POTENTIAL ENERGY[hartree]    =          0.265305983569E+01   0.239710372075E+01
 KINETIC ENERGY [hartree]     =          0.220547737361E+01   0.246127978473E+01
 TEMPERATURE [K]              =                     516.451              576.351
 *******************************************************************************

 FOBSH| Put former active state           1 in new active state           1
 RANDOM_NUMBER_HOPPING_PROBA  0.48606599939561634     
 FOBSH| ACTIVE STATE =            1

 ENERGY| Total FORCE_EVAL ( MIXED ) energy (a.u.):             2.675523375566821

 FOBSH| CASE1: no hop and no trivial crossing
 ENTER integrator.F
 STEP NUMBER                  =          197
 CPU TIME [s]                 =    2.7031082659959793E-002  0.36342576210892880     

 *******************************************************************************
 ENSEMBLE TYPE                =                                              NVE
 STEP NUMBER                  =                                              197
 TIME [fs]                    =                                        19.700000
 CONSERVED QUANTITY [hartree] =                               0.485855572914E+01

                                              INSTANTANEOUS             AVERAGES
 CPU TIME [s]                 =                        0.03                 0.36
 ENERGY DRIFT PER ATOM [K]    =          0.700957427239E-01   0.100148887189E-01
 POTENTIAL ENERGY[hartree]    =          0.267552337557E+01   0.239851701849E+01
 KINETIC ENERGY [hartree]     =          0.218303235358E+01   0.245986736122E+01
 TEMPERATURE [K]              =                     511.195              576.021
 *******************************************************************************

 FOBSH| Put former active state           1 in new active state           1
 RANDOM_NUMBER_HOPPING_PROBA  0.45438982907521647     
 FOBSH| ACTIVE STATE =            1

 ENERGY| Total FORCE_EVAL ( MIXED ) energy (a.u.):             2.695448861728604

 FOBSH| CASE1: no hop and no trivial crossing
 ENTER integrator.F
 STEP NUMBER                  =          198
 CPU TIME [s]                 =    2.7005467563867569E-002  0.36172666971223660     

 *******************************************************************************
 ENSEMBLE TYPE                =                                              NVE
 STEP NUMBER                  =                                              198
 TIME [fs]                    =                                        19.800000
 CONSERVED QUANTITY [hartree] =                               0.485857242215E+01

                                              INSTANTANEOUS             AVERAGES
 CPU TIME [s]                 =                        0.03                 0.36
 ENERGY DRIFT PER ATOM [K]    =          0.759526648981E-01   0.103479077905E-01
 POTENTIAL ENERGY[hartree]    =          0.269544886173E+01   0.240001667427E+01
 KINETIC ENERGY [hartree]     =          0.216312356043E+01   0.245836865515E+01
 TEMPERATURE [K]              =                     506.533              575.670
 *******************************************************************************

 FOBSH| Put former active state           1 in new active state           1
 RANDOM_NUMBER_HOPPING_PROBA  0.22230397310089936     
 FOBSH| ACTIVE STATE =            1

 ENERGY| Total FORCE_EVAL ( MIXED ) energy (a.u.):             2.712573973723786

 FOBSH| CASE1: no hop and no trivial crossing
 ENTER integrator.F
 STEP NUMBER                  =          199
 CPU TIME [s]                 =    2.7047230862081051E-002  0.36004486348685893     

 *******************************************************************************
 ENSEMBLE TYPE                =                                              NVE
 STEP NUMBER                  =                                              199
 TIME [fs]                    =                                        19.900000
 CONSERVED QUANTITY [hartree] =                               0.485858712527E+01

                                              INSTANTANEOUS             AVERAGES
 CPU TIME [s]                 =                        0.03                 0.36
 ENERGY DRIFT PER ATOM [K]    =          0.811114104420E-01   0.107035032812E-01
 POTENTIAL ENERGY[hartree]    =          0.271257397372E+01   0.240158731396E+01
 KINETIC ENERGY [hartree]     =          0.214601315155E+01   0.245679902951E+01
 TEMPERATURE [K]              =                     502.526              575.302
 *******************************************************************************

 FOBSH| Put former active state           1 in new active state           1
 RANDOM_NUMBER_HOPPING_PROBA  0.68205899113516100     
 FOBSH| ACTIVE STATE =            1

 ENERGY| Total FORCE_EVAL ( MIXED ) energy (a.u.):             2.726668534978207

 FOBSH| CASE1: no hop and no trivial crossing
 ENTER integrator.F
 STEP NUMBER                  =          200
 CPU TIME [s]                 =    2.7085312642157078E-002  0.35838006573263542     

 *******************************************************************************
 ENSEMBLE TYPE                =                                              NVE
 STEP NUMBER                  =                                              200
 TIME [fs]                    =                                        20.000000
 CONSERVED QUANTITY [hartree] =                               0.485859967835E+01

                                              INSTANTANEOUS             AVERAGES
 CPU TIME [s]                 =                        0.03                 0.36
 ENERGY DRIFT PER ATOM [K]    =          0.855157917407E-01   0.110775647235E-01
 POTENTIAL ENERGY[hartree]    =          0.272666853498E+01   0.240321272007E+01
 KINETIC ENERGY [hartree]     =          0.213193114337E+01   0.245517469008E+01
 TEMPERATURE [K]              =                     499.229              574.922
 *******************************************************************************


 -------------------------------------------------------------------------------
 -                                                                             -
 -                                DBCSR STATISTICS                             -
 -                                                                             -
 -------------------------------------------------------------------------------
 COUNTER                                    TOTAL       BLAS       SMM       ACC
 flops total                                    0       0.0%      0.0%      0.0%
 flops max/rank                                 0       0.0%      0.0%      0.0%
 matmuls inhomo. stacks                         0       0.0%      0.0%      0.0%
 matmuls total                                  0       0.0%      0.0%      0.0%
 number of processed stacks                     0       0.0%      0.0%      0.0%
 average stack size                                     0.0       0.0       0.0
 marketing flops                     0.000000E+00
 -------------------------------------------------------------------------------

 MEMORY| Estimated peak process memory [MiB]                                 122

 -------------------------------------------------------------------------------
 -                                                                             -
 -                           R E F E R E N C E S                               -
 -                                                                             -
 -------------------------------------------------------------------------------
 
 CP2K version 4.0 (Development Version), the CP2K developers group (2015).
 CP2K is freely available from https://www.cp2k.org/ .

 Borstnik, U; VandeVondele, J; Weber, V; Hutter, J. 
 PARALLEL COMPUTING, 40 (5-6), 47-58 (2014). 
 Sparse matrix multiplication: The distributed block-compressed sparse
 row library.
 http://dx.doi.org/10.1016/j.parco.2014.03.012


 Hutter, J; Iannuzzi, M; Schiffmann, F; VandeVondele, J. 
 WILEY INTERDISCIPLINARY REVIEWS-COMPUTATIONAL MOLECULAR SCIENCE, 4 (1), 15-25 (2014). 
 CP2K: atomistic simulations of condensed matter systems.
 http://dx.doi.org/10.1002/wcms.1159


 Frigo, M; Johnson, SG. 
 PROCEEDINGS OF THE IEEE, 93 (2), 216-231 (2005). 
 The design and implementation of FFTW3.
 http://dx.doi.org/10.1109/JPROC.2004.840301


 -------------------------------------------------------------------------------
 -                                                                             -
 -                                T I M I N G                                  -
 -                                                                             -
 -------------------------------------------------------------------------------
 SUBROUTINE                       CALLS  ASD         SELF TIME        TOTAL TIME
                                MAXIMUM       AVERAGE  MAXIMUM  AVERAGE  MAXIMUM
 CP2K                                 1  1.0    0.037    0.037   81.189   81.189
 qs_mol_dyn_low                       1  2.0   14.262   14.262   71.740   71.740
 parser_read_line               2346106  3.0   18.223   18.223   55.669   55.669
 parser_read_line_low              2509  4.3   37.415   37.415   37.446   37.446
 topology_control                     3  4.0    0.161    0.161    8.777    8.777
 connectivity_control                 3  5.0    0.006    0.006    8.303    8.303
 read_topology_psf                  150  6.0    3.695    3.695    8.287    8.287
 fist_create_force_env                2  2.0    0.000    0.000    6.663    6.663
 fist_init                            2  3.0    0.002    0.002    6.662    6.662
 velocity_verlet                    200  3.0    2.106    2.106    6.230    6.230
 fist_calc_energy_force             408  4.0    0.019    0.019    4.405    4.405
 force_nonbond                      204  5.0    3.362    3.362    3.362    3.362
 mixed_create_force_env               1  2.0    0.000    0.000    2.738    2.738
 mixed_init                           1  3.0    0.000    0.000    2.738    2.738
 -------------------------------------------------------------------------------

 The number of warnings for this run is : 1
 
 -------------------------------------------------------------------------------
  **** **** ******  **  PROGRAM ENDED AT                 2021-02-12 16:44:58.033
 ***** ** ***  *** **   PROGRAM RAN ON                   bulstake.phys.ucl.ac.uk
 **    ****   ******    PROGRAM RAN BY                                 sgiannini
 ***** **    ** ** **   PROGRAM PROCESS ID                                  3522
  **** **  *******  **  PROGRAM STOPPED IN /scratch/sgiannini/FOB-SH-REGTESTS_/3
                                           3-XXX_code_extension_V2/run-fssh-MTS1
                                           0
