#     Step Nr.          Time[fs]        Kin.[a.u.]          Temp[K]            Pot.[a.u.]        Cons Qty[a.u.]        UsedTime[s]
         0            0.000000         2.412123729       564.840579357         2.445897937         4.858021666         0.000000000
         1            0.100000         2.440888130       571.576262480         2.417111093         4.857999224         0.881381134
         2            0.200000         2.468281418       577.990875618         2.389696879         4.857978298         0.219593138
         3            0.300000         2.493971291       584.006604666         2.363987719         4.857959010         0.187757073
         4            0.400000         2.517651806       589.551807648         2.340289774         4.857941580         0.200279163
         5            0.500000         2.539046759       594.561806669         2.318879458         4.857926217         0.186507354
         6            0.600000         2.557913037       598.979672661         2.300000060         4.857913096         0.224303788
         7            0.700000         2.574043648       602.756934779         2.283858754         4.857902402         0.188174572
         8            0.800000         2.587270287       605.854181642         2.270623959         4.857894246         0.183342144
         9            0.900000         2.597465422       608.241549293         2.260423317         4.857888740         0.184325073
        10            1.000000         2.604543831       609.899081365         2.253342103         4.857885934         0.200147323
        11            1.100000         2.608463598       610.816962644         2.249422270         4.857885867         0.159579396
        12            1.200000         2.609226522       610.995614653         2.248661984         4.857888506         0.182592859
        13            1.300000         2.606877909       610.445646146         2.251015913         4.857893822         0.200570332
        14            1.400000         2.601505841       609.187683278         2.256395886         4.857901727         0.200541591
        15            1.500000         2.593239919       607.252074461         2.264672199         4.857912118         0.198674280
        16            1.600000         2.582249438       604.678462802         2.275675396         4.857924834         0.191457096
        17            1.700000         2.568740946       601.515215265         2.289198753         4.857939699         0.200967364
        18            1.800000         2.552955384       597.818752234         2.305001123         4.857956507         0.185147151
        19            1.900000         2.535164808       593.652780525         2.322810224         4.857975032         0.183592675
        20            2.000000         2.515668694       589.087427475         2.342326315         4.857995008         0.183261242
        21            2.100000         2.494789825       584.198278468         2.363226340         4.858016165         0.184640175
        22            2.200000         2.472869874       579.065342158         2.385168340         4.858038215         0.198134802
        23            2.300000         2.450264782       573.771967857         2.407796084         4.858060866         0.183605406
        24            2.400000         2.427339962       568.403724135         2.430743832         4.858083794         0.183134252
        25            2.500000         2.404465355       563.047238252         2.453641328         4.858106682         0.183048360
        26            2.600000         2.382010331       557.789005133         2.476118886         4.858129217         0.200726332
        27            2.700000         2.360338711       552.714219713         2.497812393         4.858151104         0.167550912
        28            2.800000         2.339803920       547.905642652         2.518368121         4.858172041         0.199620930
        29            2.900000         2.320744180       543.442473994         2.537447564         4.858191744         0.186233560
        30            3.000000         2.303477889       539.399272817         2.554732054         4.858209944         0.184294550
        31            3.100000         2.288299325       535.844949012         2.569927044         4.858226369         0.185436325
        32            3.200000         2.275474562       532.841808513         2.582766249         4.858240812         0.204544861
        33            3.300000         2.265237821       530.444698060         2.593015248         4.858253069         0.181587012
        34            3.400000         2.257788278       528.700258429         2.600474682         4.858262960         0.158505527
        35            3.500000         2.253287284       527.646272591         2.604983061         4.858270344         0.217964966
        36            3.600000         2.251855669       527.311035248         2.606419143         4.858274812         0.231877176
        37            3.700000         2.253573252       527.713236974         2.604702987         4.858276239         0.203228643
        38            3.800000         2.258476916       528.861514986         2.599798683         4.858275599         0.213742012
        39            3.900000         2.266559022       530.754080228         2.591713212         4.858272234         0.119300116
        40            4.000000         2.277768610       533.378999577         2.580497569         4.858266180         0.193967856
        41            4.100000         2.292011558       536.714232540         2.566245943         4.858257501         0.176850304
        42            4.200000         2.309151620       540.727875266         2.549094678         4.858246299         0.113688476
        43            4.300000         2.329012068       545.378543399         2.529220644         4.858232713         0.182358105
        44            4.400000         2.351377926       550.615896655         2.506838979         4.858216905         0.157168491
        45            4.500000         2.375998651       556.381266087         2.482200428         4.858199078         0.132504191
        46            4.600000         2.402591229       562.608379143         2.455588238         4.858179466         0.119468894
        47            4.700000         2.430843794       569.224206896         2.427314510         4.858158304         0.145936316
        48            4.800000         2.460419605       576.149895747         2.397716267         4.858135872         0.134725947
        49            4.900000         2.490961280       583.301758374         2.367151172         4.858112452         0.182099061
        50            5.000000         2.522095373       590.592345934         2.335992965         4.858088338         0.192321595
        51            5.100000         2.553437139       597.931563670         2.304626703         4.858063842         0.180498559
        52            5.200000         2.584595459       605.227824178         2.273443824         4.858039282         0.165175550
        53            5.300000         2.615177862       612.389223998         2.242837105         4.858014966         0.136035671
        54            5.400000         2.644795594       619.324729267         2.213195614         4.857991208         0.089142185
        55            5.500000         2.673068638       625.945352526         2.184899693         4.857968330         0.129687855
        56            5.600000         2.699630565       632.165288117         2.158316055         4.857946619         0.091280149
        57            5.700000         2.724133292       637.903026347         2.133793056         4.857926347         0.090516144
        58            5.800000         2.746251619       643.082416149         2.111656184         4.857907804         0.130379559
        59            5.900000         2.765687417       647.633644997         2.092203794         4.857891211         0.115783371
        60            6.000000         2.782173487       651.494144051         2.075703293         4.857876780         0.199109001
        61            6.100000         2.795477052       654.609404353         2.062387662         4.857864713         0.188501185
        62            6.200000         2.805402836       656.933698672         2.052452339         4.857855174         0.173921248
        63            6.300000         2.811795660       658.430689186         2.046052625         4.857848285         0.171219295
        64            6.400000         2.814542511       659.073911983         2.043301637         4.857844147         0.177882368
        65            6.500000         2.813574108       658.847143660         2.044268708         4.857842816         0.163141832
        66            6.600000         2.808865878       657.744629989         2.048978445         4.857844322         0.219484184
        67            6.700000         2.800438392       655.771188093         2.057410265         4.857848657         0.385149503
        68            6.800000         2.788357222       652.942172817         2.069498556         4.857855778         0.170139208
        69            6.900000         2.772732249       649.283314589         2.085133361         4.857865610         0.190012073
        70            7.000000         2.753716402       644.830424290         2.104161622         4.857878024         0.203227572
        71            7.100000         2.731503871       639.628975271         2.126389003         4.857892874         0.191310380
        72            7.200000         2.706327808       633.733563725         2.151582201         4.857910009         0.175411187
        73            7.300000         2.678457473       627.207241758         2.179471720         4.857929193         0.161206570
        74            7.400000         2.648195001       620.120759333         2.209755199         4.857950200         0.183824779
        75            7.500000         2.615871715       612.551701665         2.242101070         4.857972785         0.146012016
        76            7.600000         2.581844085       604.583542327         2.276152594         4.857996679         0.115377892
        77            7.700000         2.546489397       596.304629428         2.311532184         4.858021581         0.095523957
        78            7.800000         2.510201141       587.807105275         2.347846050         4.858047191         0.076903449
        79            7.900000         2.473384213       579.185783394         2.384688989         4.858073201         0.136116877
        80            8.000000         2.436449936       570.536982445         2.421649349         4.858099286         0.147412173
        81            8.100000         2.399811052       561.957352627         2.458314102         4.858125154         0.079566387
        82            8.200000         2.363876688       553.542698480         2.494273789         4.858150478         0.109889440
        83            8.300000         2.329047351       545.386805441         2.529127593         4.858174944         0.107064379
        84            8.400000         2.295710029       537.580293822         2.562488228         4.858198257         0.084934952
        85            8.500000         2.264233460       530.209509452         2.593986686         4.858220146         0.120087061
        86            8.600000         2.234963680       523.355483169         2.623276646         4.858240325         0.104689991
        87            8.700000         2.208219827       517.092946615         2.650038742         4.858258569         0.087328149
        88            8.800000         2.184290274       511.489426933         2.673984383         4.858274657         0.181121564
        89            8.900000         2.163429143       506.604431425         2.694859264         4.858288407         0.130805651
        90            9.000000         2.145853262       502.488734262         2.712446385         4.858299647         0.086000100
        91            9.100000         2.131739609       499.183777926         2.726568640         4.858308249         0.121788554
        92            9.200000         2.121223201       496.721178569         2.737090916         4.858314117         0.177083958
        93            9.300000         2.114395528       495.122360601         2.743921647         4.858317174         0.094008753
        94            9.400000         2.111303583       494.398328207         2.747013823         4.858317406         0.140045304
        95            9.500000         2.111949371       494.549550669         2.746365441         4.858314812         0.206252681
        96            9.600000         2.116289997       495.565983400         2.742019440         4.858309437         0.104154555
        97            9.700000         2.124238320       497.427221000         2.734063035         4.858301355         0.111801855
        98            9.800000         2.135664170       500.102781854         2.722626505         4.858290675         0.166405490
        99            9.900000         2.150396113       503.552521579         2.707881425         4.858277538         0.165692436
       100           10.000000         2.168223703       507.727160885         2.690038406         4.858262109         0.088754307
       101           10.100000         2.188900239       512.568930159         2.669344357         4.858244596         0.088413868
       102           10.200000         2.212145934       518.012312615         2.646079288         4.858225222         0.116824323
       103           10.300000         2.237651490       523.984880536         2.620552736         4.858204227         0.104074350
       104           10.400000         2.265082087       530.408230326         2.593099809         4.858181896         0.154805040
       105           10.500000         2.294081648       537.198980114         2.564076839         4.858158487         0.214234699
       106           10.600000         2.324277337       544.269824024         2.533856989         4.858134326         0.133743849
       107           10.700000         2.355284301       551.530642157         2.502825395         4.858109696         0.121538751
       108           10.800000         2.386710546       558.889642109         2.471374363         4.858084909         0.111341465
       109           10.900000         2.418161872       566.254515160         2.439898415         4.858060287         0.203055056
       110           11.000000         2.449246840       573.533599273         2.408789299         4.858036139         0.115242124
       111           11.100000         2.479581675       580.637026678         2.378431084         4.858012759         0.142760472
       112           11.200000         2.508795039       587.477842214         2.349195380         4.857990419         0.171243612
       113           11.300000         2.536532705       593.973097359         2.321436698         4.857969403         0.180075847
       114           11.400000         2.562461943       600.044877793         2.295488046         4.857949988         0.195546677
       115           11.500000         2.586275615       605.621261873         2.271656793         4.857932408         0.175835824
       116           11.600000         2.607695973       610.637210045         2.250220900         4.857916873         0.095804125
       117           11.700000         2.626478031       615.035354450         2.231425525         4.857903556         0.102286709
       118           11.800000         2.642412519       618.766690932         2.215480098         4.857892617         0.102006705
       119           11.900000         2.655328381       621.791163956         2.202555801         4.857884183         0.099177293
       120           12.000000         2.665094773       624.078133986         2.192783577         4.857878350         0.100723572
       121           12.100000         2.671622517       625.606718414         2.186252655         4.857875173         0.121087365
       122           12.200000         2.674865059       626.366015623         2.183009610         4.857874669         0.101923272
       123           12.300000         2.674818830       626.355190321         2.183058022         4.857876851         0.101596486
       124           12.400000         2.671523153       625.583450493         2.186358521         4.857881674         0.101309730
       125           12.500000         2.665076624       624.073883903         2.192831133         4.857907757         0.135234691
       126           12.600000         2.655571434       621.848079029         2.202351233         4.857922667         0.073957792
       127           12.700000         2.643175501       618.945356417         2.214759281         4.857934782         0.074063869
       128           12.800000         2.628093288       615.413594870         2.229855731         4.857949019         0.073880956
       129           12.900000         2.610557134       611.307200528         2.247408052         4.857965186         0.074082905
       130           13.000000         2.590830226       606.687803079         2.267152833         4.857983059         0.074142618
       131           13.100000         2.569203075       601.623430750         2.288799318         4.858002393         0.073332656
       132           13.200000         2.545989588       596.187590487         2.312033346         4.858022934         0.073427560
       133           13.300000         2.521522862       590.458282454         2.336521521         4.858044383         0.073751027
       134           13.400000         2.496150782       584.516970210         2.361915704         4.858066486         0.073083801
       135           13.500000         2.470231371       578.447490881         2.387857538         4.858088909         0.073548147
       136           13.600000         2.444128013       572.334937162         2.413983367         4.858111380         0.075004039
       137           13.700000         2.418204679       566.264539214         2.439928906         4.858133586         0.072129006
       138           13.800000         2.392821105       560.320535306         2.465334133         4.858155237         0.090968605
       139           13.900000         2.368328002       554.585050809         2.489848028         4.858176030         0.074681962
       140           14.000000         2.345062468       549.137022817         2.513133228         4.858195696         0.072835505
       141           14.100000         2.323343561       544.051164231         2.534870422         4.858213984         0.073433490
       142           14.200000         2.303806637       539.476254945         2.554424004         4.858230641         0.105841901
       143           14.300000         2.285997249       535.305877932         2.572248251         4.858245500         0.101327335
       144           14.400000         2.270325959       531.636173727         2.587932196         4.858258155         0.126252202
       145           14.500000         2.257495507       528.631701049         2.600773251         4.858268758         0.113176214
       146           14.600000         2.247398337       526.267273656         2.610878649         4.858276986         0.126715882
       147           14.700000         2.240169737       524.574571779         2.618113004         4.858282742         0.107390970
       148           14.800000         2.235905401       523.576003447         2.622380555         4.858285956         0.346150694
       149           14.900000         2.234660199       523.284417817         2.623626382         4.858286580         0.114541966
       150           15.000000         2.236447493       523.702943857         2.621837127         4.858284620         0.112730028
       151           15.100000         2.241239027       524.824964594         2.617041066         4.858280093         0.082887344
       152           15.200000         2.248965346       526.634216053         2.609307719         4.858273065         0.128568059
       153           15.300000         2.259516753       529.105010738         2.598746879         4.858263632         0.157783912
       154           15.400000         2.272744772       532.202580850         2.585507139         4.858251912         0.146709085
       155           15.500000         2.288464198       535.883556902         2.569773879         4.858238077         0.080830740
       156           15.600000         2.306455805       540.096603379         2.551766584         4.858222389         0.112169089
       157           15.700000         2.326474555       544.784340799         2.531733410         4.858207966         0.080046127
       158           15.800000         2.348205890       549.873109490         2.509971550         4.858177440         0.174467413
       159           15.900000         2.371400423       555.304511435         2.486757478         4.858157901         0.105220908
       160           16.000000         2.395707067       560.996333330         2.462429600         4.858136667         0.151925752
       161           16.100000         2.421280660       566.984833370         2.436834019         4.858114679         0.157760095
       162           16.200000         2.446739891       572.946553661         2.411371125         4.858111016         0.225671928
       163           16.300000         2.472259661       578.922450022         2.385832149         4.858091810         0.100159667
       164           16.400000         2.497480037       584.828238388         2.360589799         4.858069837         0.113893813
       165           16.500000         2.522052005       590.582190459         2.335996371         4.858048376         0.123691252
       166           16.600000         2.545629296       596.103221935         2.312398248         4.858027545         0.093534784
       167           16.700000         2.567875727       601.312609268         2.290131609         4.858007336         0.121022461
       168           16.800000         2.588467971       606.134639970         2.269520280         4.857988251         0.120533083
       169           16.900000         2.607101439       610.497989569         2.250869391         4.857970830         0.093961595
       170           17.000000         2.623496827       614.337253945         2.234458506         4.857955333         0.108267449
       171           17.100000         2.637404437       617.593961676         2.220537475         4.857941911         0.082026083
       172           17.200000         2.648607080       620.217254745         2.209323632         4.857930712         0.109026955
       173           17.300000         2.656922636       622.164486344         2.200999229         4.857921865         0.152309190
       174           17.400000         2.662206320       623.401752621         2.195709165         4.857915485         0.138914265
       175           17.500000         2.664352517       623.904321900         2.193559152         4.857911670         0.124472219
       176           17.600000         2.663296264       623.656981787         2.194614200         4.857910464         0.090480514
       177           17.700000         2.659014179       622.654257535         2.198897717         4.857911896         0.078683650
       178           17.800000         2.651524826       620.900495625         2.206391124         4.857915950         0.104344681
       179           17.900000         2.640888656       618.409852142         2.217033935         4.857922592         0.178733543
       180           18.000000         2.627207366       615.206140828         2.230724386         4.857931752         0.092154620
       181           18.100000         2.610622690       611.322551584         2.247320614         4.857943305         0.093324173
       182           18.200000         2.591314724       606.801256652         2.266642409         4.857957134         0.164463243
       183           18.300000         2.569499774       601.692907880         2.288473293         4.857973067         0.092794772
       184           18.400000         2.545427672       596.056008182         2.312563231         4.857990904         0.135522865
       185           18.500000         2.519378703       589.956190584         2.338631730         4.858010433         0.075273937
       186           18.600000         2.491660154       583.465411902         2.366371262         4.858031416         0.071696816
       187           18.700000         2.462602486       576.661055268         2.395451097         4.858053583         0.071003387
       188           18.800000         2.432555267       569.624978061         2.425521399         4.858076666         0.070857076
       189           18.900000         2.401882758       562.442478441         2.456217618         4.858100376         0.072675001
       190           19.000000         2.370959413       555.201241241         2.487165036         4.858124449         0.086794220
       191           19.100000         2.340165223       547.990247908         2.517983318         4.858148541         0.071239987
       192           19.200000         2.309880718       540.898606250         2.548291621         4.858172339         0.072168162
       193           19.300000         2.280482138       534.014419127         2.577713472         4.858195610         0.071902774
       194           19.400000         2.252337169       527.423786845         2.605880899         4.858218068         0.071862873
       195           19.500000         2.225800467       521.209757999         2.632438932         4.858239399         0.071361052
       196           19.600000         2.201208883       515.451212461         2.657050447         4.858259330         0.072289344
       197           19.700000         2.178877110       510.221840800         2.679400507         4.858277617         0.071432130
       198           19.800000         2.159093780       505.589231096         2.699200256         4.858294035         0.072002992
       199           19.900000         2.142117847       501.614022243         2.716190534         4.858308381         0.072325746
       200           20.000000         2.128175336       498.349141535         2.730145138         4.858320474         0.074987439
