#     Step Nr.          Time[fs]        Kin.[a.u.]          Temp[K]            Pot.[a.u.]        Cons Qty[a.u.]        UsedTime[s]
         0            0.000000         2.412123729       564.840579357         2.446232218         4.858355947         0.000000000
         1            0.100000         2.440711636       571.534933276         2.417622452         4.858334088        63.298273112
         2            0.200000         2.467926334       577.907726488         2.390386990         4.858313324         0.082819927
         3            0.300000         2.493438358       583.881809053         2.364855774         4.858294131         0.081851101
         4            0.400000         2.516943072       589.385845291         2.341333700         4.858276772         0.083424249
         5            0.500000         2.538165197       594.355373585         2.320096254         4.858261451         0.080520870
         6            0.600000         2.556862418       598.733652118         2.301385962         4.858248381         0.084128486
         7            0.700000         2.572828464       602.472378345         2.285409261         4.858237724         0.082999586
         8            0.800000         2.585895711       605.532300908         2.272333893         4.858229604         0.080070575
         9            0.900000         2.595937289       607.883710433         2.262286856         4.858224145         0.081706874
        10            1.000000         2.602868606       609.506798345         2.255352767         4.858221373         0.079723097
        11            1.100000         2.606648355       610.391892043         2.251572980         4.858221335         0.081463231
        12            1.200000         2.607278928       610.539551787         2.250945077         4.858224006         0.081865502
        13            1.300000         2.604806191       609.960517554         2.253423167         4.858229359         0.079812682
        14            1.400000         2.599318759       608.675540126         2.258918535         4.858237293         0.079705095
        15            1.500000         2.590946738       606.715086333         2.267300976         4.858247714         0.080093197
        16            1.600000         2.579859894       604.118909654         2.278400547         4.858260441         0.078105147
        17            1.700000         2.566265225       600.935482291         2.292010105         4.858275330         0.077710631
        18            1.800000         2.550404082       597.221320823         2.307888090         4.858292173         0.076302892
        19            1.900000         2.532548874       593.040214253         2.325761822         4.858310696         0.077544905
        20            2.000000         2.512999411       588.462368610         2.345331280         4.858330691         0.077283449
        21            2.100000         2.492078777       583.563439556         2.366273090         4.858351867         0.076288845
        22            2.200000         2.470128864       578.423487151         2.388245066         4.858373930         0.076205730
        23            2.300000         2.447505801       573.125904691         2.410890789         4.858396590         0.077727282
        24            2.400000         2.424575157       567.756297037         2.433844363         4.858419520         0.075023384
        25            2.500000         2.401706960       562.401312413         2.456735448         4.858442408         0.075129500
        26            2.600000         2.379221337       557.135913973         2.479243622         4.858464959         0.073792906
        27            2.700000         2.357528007       552.056044821         2.500958862         4.858486870         0.075972635
        28            2.800000         2.336980582       547.244508993         2.521527224         4.858507806         0.074137717
        29            2.900000         2.317917427       542.780540794         2.540610089         4.858527515         0.073552832
        30            3.000000         2.300657067       538.738728322         2.557888685         4.858545751         0.073029403
        31            3.100000         2.285493880       535.188005415         2.573068296         4.858562177         0.073341129
        32            3.200000         2.272694004       532.190692493         2.585882621         4.858576624         0.072224809
        33            3.300000         2.262491711       529.801648796         2.596097175         4.858588886         0.073084204
        34            3.400000         2.255086211       528.067522734         2.603512572         4.858598784         0.072453965
        35            3.500000         2.250638848       527.026095611         2.607967327         4.858606176         0.072092321
        36            3.600000         2.249270848       526.705754505         2.609340099         4.858610946         0.073053591
        37            3.700000         2.251061593       527.125088591         2.607551421         4.858613014         0.072170653
        38            3.800000         2.256047438       528.292610521         2.602564943         4.858612381         0.072101405
        39            3.900000         2.264221037       530.206600381         2.594387964         4.858609001         0.072228723
        40            4.000000         2.275531343       532.855104718         2.583071572         4.858602915         0.072165185
        41            4.100000         2.289884097       536.216050711         2.568710143         4.858594240         0.071395595
        42            4.200000         2.307142842       540.257485069         2.551440187         4.858583029         0.072079104
        43            4.300000         2.327130636       544.937973492         2.531438773         4.858569409         0.071469113
        44            4.400000         2.349632251       550.207116629         2.508921334         4.858553585         0.072349267
        45            4.500000         2.374396853       556.006177458         2.484138882         4.858535735         0.071709760
        46            4.600000         2.401141093       562.268804787         2.457375012         4.858516105         0.071299128
        47            4.700000         2.429552711       568.921877442         2.428942214         4.858494925         0.071751480
        48            4.800000         2.459294533       575.886440654         2.399177924         4.858472457         0.071512123
        49            4.900000         2.490008688       583.078692491         2.368440322         4.858449010         0.071328712
        50            5.000000         2.521321182       590.411055515         2.337103671         4.858424852         0.072850626
        51            5.100000         2.552846674       597.793295876         2.305553636         4.858400310         0.071070666
        52            5.200000         2.584193400       605.133675262         2.274182300         4.858375700         0.071011377
        53            5.300000         2.614968288       612.340148533         2.243383102         4.858351389         0.070704870
        54            5.400000         2.644783069       619.321796283         2.213544991         4.858328060         0.070816209
        55            5.500000         2.673279121       625.994640747         2.185034944         4.858314064         0.071177569
        56            5.600000         2.699982536       632.247708254         2.158300417         4.858282953         0.090696407
        57            5.700000         2.724754758       638.048553542         2.133486553         4.858241312         0.090820473
        58            5.800000         2.747028001       643.264219336         2.111179389         4.858207390         0.071311194
        59            5.900000         2.766723291       647.876212943         2.091457563         4.858180854         0.089943320
        60            6.000000         2.783348743       651.769350717         2.074805878         4.858154622         0.070631051
        61            6.100000         2.796842822       654.929222988         2.061297943         4.858140764         0.070488191
        62            6.200000         2.806960957       657.298559695         2.051170003         4.858130959         0.070173602
        63            6.300000         2.813541993       658.839623529         2.044581968         4.858123962         0.072515540
        64            6.400000         2.816470975       659.525495220         2.041648763         4.858119737         0.073027122
        65            6.500000         2.815677274       659.339636432         2.042441066         4.858118339         0.071147944
        66            6.600000         2.811135149       658.276019167         2.046984648         4.858119796         0.072109151
        67            6.700000         2.802864080       656.339205053         2.055259995         4.858124075         0.154552696
        68            6.800000         2.790928632       653.544313011         2.067202508         4.858131140         0.070681474
        69            6.900000         2.775437718       649.916846954         2.082703198         4.858140916         0.070499037
        70            7.000000         2.756543357       645.492404985         2.101609922         4.858153279         0.070299315
        71            7.100000         2.734438906       640.316264534         2.123729175         4.858168081         0.070627188
        72            7.200000         2.709356754       634.442843907         2.148828422         4.858185176         0.070503236
        73            7.300000         2.681565478       627.935034916         2.176638838         4.858204316         0.070121782
        74            7.400000         2.651366616       620.863448015         2.206858676         4.858225292         0.070393607
        75            7.500000         2.619090983       613.305549171         2.239156863         4.858247846         0.070621168
        76            7.600000         2.585094655       605.344719765         2.273177069         4.858271725         0.070551055
        77            7.700000         2.549754639       597.069242402         2.308541976         4.858296615         0.070608845
        78            7.800000         2.513464239       588.571216322         2.344857983         4.858322222         0.070676356
        79            7.900000         2.476628304       579.945443702         2.381719939         4.858348243         0.070755387
        80            8.000000         2.439658232       571.288260406         2.418716130         4.858374362         0.070120922
        81            8.100000         2.402966945       562.696359735         2.455433299         4.858400244         0.070185178
        82            8.200000         2.366963884       554.265618901         2.491461715         4.858425599         0.071631985
        83            8.300000         2.332050005       546.089928942         2.526400095         4.858450100         0.069704405
        84            8.400000         2.298612864       538.260042911         2.559860589         4.858473453         0.070244303
        85            8.500000         2.267021883       530.862466995         2.591473502         4.858495385         0.070338493
        86            8.600000         2.237623925       523.978425666         2.620891689         4.858515614         0.070367011
        87            8.700000         2.210739043       517.682864666         2.647794888         4.858533931         0.070439966
        88            8.800000         2.186656606       512.043544616         2.671893487         4.858550094         0.070728532
        89            8.900000         2.165631857       507.120235238         2.692932057         4.858563915         0.071306417
        90            9.000000         2.147882821       502.963990775         2.710692406         4.858575227         0.070836694
        91            9.100000         2.133587738       499.616549209         2.724996163         4.858583900         0.070808105
        92            9.200000         2.122882957       497.109839227         2.735706905         4.858589861         0.070631449
        93            9.300000         2.115861349       495.465608100         2.742731657         4.858593006         0.072352153
        94            9.400000         2.112571326       494.695192159         2.746021998         4.858593324         0.069617118
        95            9.500000         2.113016322       494.799395616         2.745574505         4.858590826         0.070504165
        96            9.600000         2.117154868       495.768507916         2.741430675         4.858585542         0.070728164
        97            9.700000         2.124901255       497.582458732         2.733676299         4.858577554         0.070799588
        98            9.800000         2.136126713       500.211094332         2.722440257         4.858566970         0.070171952
        99            9.900000         2.150661174       503.614590331         2.707892744         4.858553919         0.070302960
       100           10.000000         2.168295515       507.743976923         2.690243049         4.858538565         0.071394855
       101           10.100000         2.188784279       512.541776102         2.669736842         4.858521121         0.070926113
       102           10.200000         2.211848839       517.942742641         2.646652987         4.858501826         0.070721857
       103           10.300000         2.237180971       523.874700327         2.621299915         4.858480886         0.071414936
       104           10.400000         2.264446831       530.259474160         2.594011785         4.858458616         0.070351093
       105           10.500000         2.293291193       537.013881265         2.565144063         4.858435255         0.070622999
       106           10.600000         2.323341967       544.050790898         2.535069176         4.858411143         0.048596479
       107           10.700000         2.354214924       551.280228974         2.504171626         4.858386550         0.040051776
       108           10.800000         2.385518521       558.610508761         2.472843268         4.858361789         0.039716518
       109           10.900000         2.416858888       565.949398790         2.441478286         4.858337173         0.040003057
       110           11.000000         2.447844775       573.205281337         2.410468255         4.858313030         0.039967474
       111           11.100000         2.478092371       580.288280190         2.380197247         4.858289618         0.040166898
       112           11.200000         2.507226634       587.110572941         2.351038233         4.858264867         0.040084656
       113           11.300000         2.534927533       593.597218532         2.323340804         4.858268337         0.051910560
       114           11.400000         2.560805092       599.656897411         2.297443683         4.858248775         0.064812314
       115           11.500000         2.584578301       605.223806525         2.273652845         4.858231147         0.074179532
       116           11.600000         2.605968551       610.232704288         2.252247015         4.858215567         0.073884679
       117           11.700000         2.624730148       614.626057393         2.233472032         4.858202180         0.073849314
       118           11.800000         2.640653064       618.354684002         2.217538121         4.858191185         0.073948419
       119           11.900000         2.653565384       621.378327536         2.204617315         4.858182698         0.073496015
       120           12.000000         2.663335326       623.666128793         2.194841474         4.858176800         0.073890505
       121           12.100000         2.669872741       625.196977912         2.188300820         4.858173561         0.073847460
       122           12.200000         2.673130065       625.959736712         2.185042925         4.858172990         0.072459381
       123           12.300000         2.673102699       625.953328628         2.185072402         4.858175101         0.073234187
       124           12.400000         2.669828897       625.186711079         2.188350949         4.858179846         0.073803546
       125           12.500000         2.663389070       623.678714016         2.194798078         4.858187148         0.073993714
       126           12.600000         2.653904504       621.457738436         2.204292376         4.858196880         0.073705858
       127           12.700000         2.641535645       618.561355735         2.216673282         4.858208926         0.073801360
       128           12.800000         2.626479848       615.035779899         2.231743257         4.858223105         0.073771739
       129           12.900000         2.608968598       610.935217206         2.249270620         4.858239218         0.073873692
       130           13.000000         2.589264323       606.321119768         2.268992727         4.858257050         0.073378514
       131           13.100000         2.567656879       601.261362149         2.290619471         4.858276350         0.073627089
       132           13.200000         2.544459627       595.829323466         2.313837230         4.858296856         0.073574582
       133           13.300000         2.520005238       590.102904494         2.338313038         4.858318276         0.073789056
       134           13.400000         2.494641301       584.163499128         2.363699065         4.858340367         0.073783129
       135           13.500000         2.468725675       578.094906073         2.389637110         4.858362785         0.073775408
       136           13.600000         2.442621718       571.982212167         2.415763544         4.858385262         0.073364029
       137           13.700000         2.416693523       565.910675908         2.441713962         4.858407485         0.073542168
       138           13.800000         2.391301090       559.964597526         2.467128073         4.858429163         0.073348230
       139           13.900000         2.366795520       554.226193473         2.491654467         4.858449987         0.073478141
       140           14.000000         2.343514441       548.774525446         2.514955257         4.858469699         0.073426769
       141           14.100000         2.321777575       543.684461392         2.536710463         4.858488038         0.073554516
       142           14.200000         2.301882550       539.025696614         2.556622205         4.858504755         0.073369566
       143           14.300000         2.284101010       534.861840774         2.574418620         4.858519630         0.073477660
       144           14.400000         2.268674993       531.249571372         2.589857471         4.858532464         0.073462563
       145           14.500000         2.255813777       528.237894934         2.602729313         4.858543090         0.073990414
       146           14.600000         2.245691149       525.867505912         2.612860213         4.858551362         0.073540241
       147           14.700000         2.238443128       524.170256306         2.620114045         4.858557173         0.073753884
       148           14.800000         2.234166245       523.168749930         2.624394201         4.858560446         0.161292639
       149           14.900000         2.232916258       522.876043924         2.625644871         4.858561129         0.073671763
       150           15.000000         2.234707433       523.295478470         2.623851791         4.858559224         0.073716619
       151           15.100000         2.239512403       524.420645669         2.619042348         4.858554752         0.074623528
       152           15.200000         2.247262566       526.235480615         2.611285209         4.858547776         0.073253560
       153           15.300000         2.257848999       528.714477416         2.600689385         4.858538385         0.073899705
       154           15.400000         2.271123902       531.823025985         2.587402804         4.858526706         0.073613825
       155           15.500000         2.286902589       535.517878931         2.571610299         4.858512887         0.073577269
       156           15.600000         2.304965968       539.747732331         2.553531146         4.858497115         0.073663641
       157           15.700000         2.325063430       544.453901356         2.533416151         4.858479581         0.074046244
       158           15.800000         2.346916162       549.571097198         2.511544377         4.858460538         0.073744329
       159           15.900000         2.370220797       555.028281592         2.488219447         4.858440244         0.074072930
       160           16.000000         2.394653486       560.749619176         2.463765462         4.858418949         0.073554347
       161           16.100000         2.419874173       566.655480056         2.438522765         4.858396937         0.073569865
       162           16.200000         2.445531090       572.663491879         2.412843414         4.858374504         0.073993877
       163           16.300000         2.471265420       578.689631325         2.387086536         4.858351956         0.073773483
       164           16.400000         2.496715965       584.649317609         2.361613607         4.858329572         0.073888187
       165           16.500000         2.521524007       590.458550552         2.336783645         4.858307651         0.073179229
       166           16.600000         2.545338048       596.035021137         2.312948440         4.858286489         0.073890278
       167           16.700000         2.567818392       601.299183202         2.290447987         4.858266379         0.073310155
       168           16.800000         2.588641637       606.175306896         2.269605922         4.858247559         0.074076283
       169           16.900000         2.607504988       610.592487538         2.250725315         4.858230302         0.073525795
       170           17.000000         2.624130297       614.485591947         2.234084546         4.858214843         0.073543467
       171           17.100000         2.638267773       617.796126861         2.219933614         4.858201387         0.073671956
       172           17.200000         2.649699276       620.473011505         2.208490840         4.858190116         0.073551998
       173           17.300000         2.658241268       622.473266960         2.199939906         4.858181174         0.073591419
       174           17.400000         2.663747314       623.762603031         2.194427376         4.858174691         0.073406604
       175           17.500000         2.666110025       624.315872858         2.192060736         4.858170762         0.073649830
       176           17.600000         2.665262628       624.117440141         2.192906814         4.858169443         0.073702114
       177           17.700000         2.661179945       623.161409086         2.196990823         4.858170768         0.073582808
       178           17.800000         2.653878770       621.451712464         2.204295946         4.858174717         0.073789789
       179           17.900000         2.643417869       619.002111124         2.214763384         4.858181253         0.073685613
       180           18.000000         2.629897375       615.836053085         2.228292943         4.858190318         0.073756127
       181           18.100000         2.613457582       611.986390636         2.244744201         4.858201783         0.073982230
       182           18.200000         2.594277291       607.494993118         2.263938246         4.858215537         0.073615256
       183           18.300000         2.572571685       602.412249263         2.285659724         4.858231409         0.073794268
       184           18.400000         2.548589650       596.796440143         2.309659556         4.858249207         0.073891515
       185           18.500000         2.522610733       590.713026261         2.335657969         4.858268702         0.073739548
       186           18.600000         2.494941695       584.233841445         2.363347974         4.858289669         0.073700258
       187           18.700000         2.465912693       577.436197552         2.392399139         4.858311832         0.073776782
       188           18.800000         2.435873226       570.401935615         2.422461699         4.858334924         0.073801021
       189           18.900000         2.405187700       563.216387972         2.453170962         4.858358662         0.074339906
       190           19.000000         2.374230908       555.967318551         2.484151864         4.858382772         0.073816741
       191           19.100000         2.343383403       548.743840491         2.515023525         4.858406928         0.073823371
       192           19.200000         2.313026687       541.635289301         2.545404153         4.858430840         0.073856316
       193           19.300000         2.283538424       534.730101364         2.574915785         4.858454209         0.073936568
       194           19.400000         2.255287764       528.114719694         2.603188984         4.858476748         0.074039507
       195           19.500000         2.228630705       521.872507266         2.629867478         4.858498182         0.073670234
       196           19.600000         2.203905613       516.082698562         2.654612618         4.858518231         0.073618165
       197           19.700000         2.181428991       510.819408010         2.677107663         4.858536654         0.072855726
       198           19.800000         2.161491501       506.150699064         2.697061718         4.858553219         0.073449819
       199           19.900000         2.144354277       502.137720916         2.714213448         4.858567724         0.073606137
       200           20.000000         2.130245669       498.833945839         2.728334315         4.858579984         0.073248557
