#     Step Nr.          Time[fs]        Kin.[a.u.]          Temp[K]            Pot.[a.u.]        Cons Qty[a.u.]        UsedTime[s]
         0            0.000000         2.412123729       564.840579357         2.446232237         4.858355966         0.000000000
         1            0.100000         2.440711635       571.534932975         2.417622462         4.858334097         0.815514822
         2            0.200000         2.467926337       577.907727296         2.390387005         4.858313342         0.230813896
         3            0.300000         2.493438360       583.881809499         2.364855785         4.858294144         0.232803969
         4            0.400000         2.516943073       589.385845589         2.341333706         4.858276779         0.237541620
         5            0.500000         2.538165204       594.355375399         2.320096267         4.858261471         0.217309983
         6            0.600000         2.556862430       598.733654738         2.301385972         4.858248401         0.200440405
         7            0.700000         2.572828478       602.472381652         2.285409275         4.858237753         0.180302422
         8            0.800000         2.585895729       605.532304956         2.272333911         4.858229640         0.166980064
         9            0.900000         2.595937308       607.883714747         2.262286865         4.858224173         0.192544254
        10            1.000000         2.602868628       609.506803455         2.255352779         4.858221407         0.216015508
        11            1.100000         2.606648384       610.391898889         2.251572995         4.858221379         0.273248196
        12            1.200000         2.607278962       610.539559654         2.250945093         4.858224055         0.260695701
        13            1.300000         2.604806228       609.960526121         2.253423178         4.858229406         0.193399327
        14            1.400000         2.599318800       608.675549768         2.258918545         4.858237345         0.184557216
        15            1.500000         2.590946783       606.715096941         2.267300983         4.858247766         0.179715188
        16            1.600000         2.579859945       604.118921669         2.278400563         4.858260508         0.200657498
        17            1.700000         2.566265281       600.935495301         2.292010117         4.858275398         0.185164932
        18            1.800000         2.550404135       597.221333210         2.307888093         4.858292229         0.186712189
        19            1.900000         2.532548934       593.040228244         2.325761842         4.858310775         0.201052535
        20            2.000000         2.512999478       588.462384357         2.345331291         4.858330769         0.184541237
        21            2.100000         2.492078836       583.563453508         2.366273103         4.858351939         0.187003061
        22            2.200000         2.470128917       578.423499540         2.388245079         4.858373997         0.193078687
        23            2.300000         2.447505855       573.125917393         2.410890801         4.858396656         0.174200576
        24            2.400000         2.424575211       567.756309734         2.433844377         4.858419588         0.198969480
        25            2.500000         2.401707007       562.401323261         2.456735465         4.858442472         0.213262640
        26            2.600000         2.379221391       557.135926521         2.479243631         4.858465022         0.230051080
        27            2.700000         2.357528074       552.056060512         2.500958846         4.858486921         0.211578861
        28            2.800000         2.336980662       547.244527797         2.521527205         4.858507867         0.228871224
        29            2.900000         2.317917522       542.780563017         2.540610055         4.858527576         0.105498223
        30            3.000000         2.300657179       538.738754612         2.557888630         4.858545809         0.110351721
        31            3.100000         2.285494005       535.188034555         2.573068236         4.858562241         0.092207938
        32            3.200000         2.272694141       532.190724740         2.585882546         4.858576687         0.095644949
        33            3.300000         2.262491863       529.801684523         2.596097083         4.858588946         0.093556501
        34            3.400000         2.255086371       528.067560125         2.603512466         4.858598837         0.166830368
        35            3.500000         2.250639016       527.026134824         2.607967206         4.858606222         0.175828276
        36            3.600000         2.249271028       526.705796751         2.609339964         4.858610992         0.185081650
        37            3.700000         2.251061787       527.125134035         2.607551276         4.858613063         0.178084308
        38            3.800000         2.256047645       528.292658974         2.602564780         4.858612425         0.174831869
        39            3.900000         2.264221266       530.206654133         2.594387785         4.858609052         0.173352964
        40            4.000000         2.275531593       532.855163300         2.583071397         4.858602990         0.165082291
        41            4.100000         2.289884350       536.216109912         2.568709952         4.858594301         0.164267000
        42            4.200000         2.307143099       540.257545279         2.551439986         4.858583085         0.183020256
        43            4.300000         2.327130902       544.938035667         2.531438580         4.858569482         0.113649389
        44            4.400000         2.349632526       550.207181130         2.508921131         4.858553657         0.165450767
        45            4.500000         2.374397134       556.006243313         2.484138673         4.858535807         0.182548480
        46            4.600000         2.401141371       562.268869920         2.457374799         4.858516170         0.183593757
        47            4.700000         2.429552986       568.921941855         2.428941993         4.858494978         0.184545599
        48            4.800000         2.459294807       575.886504730         2.399177707         4.858472513         0.201605920
        49            4.900000         2.490008960       583.078756024         2.368440101         4.858449061         0.203337356
        50            5.000000         2.521321453       590.411119087         2.337103457         4.858424910         0.224756325
        51            5.100000         2.552846945       597.793359441         2.305553430         4.858400375         0.196776047
        52            5.200000         2.584193668       605.133738017         2.274182108         4.858375777         0.255888959
        53            5.300000         2.614968558       612.340211811         2.243382898         4.858351456         0.185936477
        54            5.400000         2.644783332       619.321858044         2.213544803         4.858328135         0.109617908
        55            5.500000         2.673279348       625.994693960         2.185034776         4.858314124         0.170219367
        56            5.600000         2.699982740       632.247756158         2.158300272         4.858283013         0.115549181
        57            5.700000         2.724755061       638.048624357         2.133486355         4.858241416         0.169736128
        58            5.800000         2.747028269       643.264282168         2.111179225         4.858207494         0.086984979
        59            5.900000         2.766723488       647.876259115         2.091457466         4.858180954         0.110996181
        60            6.000000         2.783348942       651.769397183         2.074805775         4.858154717         0.087034527
        61            6.100000         2.796843015       654.929268329         2.061297870         4.858140885         0.145901216
        62            6.200000         2.806961139       657.298602414         2.051169938         4.858131077         0.139524881
        63            6.300000         2.813542152       658.839660770         2.044581916         4.858124068         0.144925235
        64            6.400000         2.816471113       659.525527630         2.041648733         4.858119846         0.161480920
        65            6.500000         2.815677390       659.339663637         2.042441050         4.858118439         0.154759530
        66            6.600000         2.811135237       658.276039775         2.046984641         4.858119878         0.168500395
        67            6.700000         2.802864150       656.339221483         2.055260000         4.858124150         0.336090794
        68            6.800000         2.790928686       653.544325646         2.067202519         4.858131205         0.165798116
        69            6.900000         2.775437756       649.916855842         2.082703222         4.858140978         0.157139856
        70            7.000000         2.756543386       645.492411659         2.101609953         4.858153339         0.152093332
        71            7.100000         2.734438931       640.316270392         2.123729211         4.858168142         0.153850256
        72            7.200000         2.709356776       634.442849103         2.148828453         4.858185229         0.155033924
        73            7.300000         2.681565502       627.935040692         2.176638875         4.858204377         0.127174264
        74            7.400000         2.651366643       620.863454289         2.206858714         4.858225356         0.076991444
        75            7.500000         2.619091018       613.305557228         2.239156899         4.858247917         0.143857326
        76            7.600000         2.585094701       605.344730538         2.273177093         4.858271794         0.158958325
        77            7.700000         2.549754690       597.069254386         2.308541998         4.858296688         0.171841137
        78            7.800000         2.513464297       588.571229919         2.344857998         4.858322295         0.150531245
        79            7.900000         2.476628367       579.945458276         2.381719943         4.858348310         0.117229018
        80            8.000000         2.439658295       571.288275232         2.418716117         4.858374412         0.077274313
        81            8.100000         2.402967019       562.696376867         2.455433285         4.858400303         0.110348385
        82            8.200000         2.366963971       554.265639325         2.491461683         4.858425655         0.079113070
        83            8.300000         2.332050102       546.089951605         2.526400050         4.858450152         0.130749721
        84            8.400000         2.298612976       538.260069040         2.559860531         4.858473507         0.168514373
        85            8.500000         2.267022017       530.862498514         2.591473430         4.858495447         0.100573242
        86            8.600000         2.237624077       523.978461309         2.620891609         4.858515686         0.078289120
        87            8.700000         2.210739206       517.682902814         2.647794794         4.858534000         0.077963419
        88            8.800000         2.186656784       512.043586262         2.671893377         4.858550161         0.077555608
        89            8.900000         2.165632051       507.120280551         2.692931938         4.858563989         0.077111883
        90            9.000000         2.147883029       502.964039500         2.710692281         4.858575310         0.079082426
        91            9.100000         2.133587963       499.616602034         2.724996032         4.858583995         0.109808885
        92            9.200000         2.122883199       497.109895891         2.735706752         4.858589951         0.078655804
        93            9.300000         2.115861604       495.465667856         2.742731494         4.858593099         0.104022341
        94            9.400000         2.112571590       494.695253976         2.746021832         4.858593422         0.078833796
        95            9.500000         2.113016588       494.799457972         2.745574335         4.858590923         0.112425692
        96            9.600000         2.117155135       495.768570478         2.741430501         4.858585636         0.078626063
        97            9.700000         2.124901521       497.582521133         2.733676124         4.858577646         0.078566153
        98            9.800000         2.136126977       500.211156130         2.722440076         4.858567053         0.089747902
        99            9.900000         2.150661437       503.614651844         2.707892561         4.858553998         0.131889360
       100           10.000000         2.168295778       507.744038512         2.690242868         4.858538646         0.143533781
       101           10.100000         2.188784539       512.541836856         2.669736671         4.858521209         0.122158132
       102           10.200000         2.211849093       517.942802044         2.646652817         4.858501910         0.130693195
       103           10.300000         2.237181220       523.874758677         2.621299757         4.858480977         0.089641102
       104           10.400000         2.264447069       530.259529808         2.594011637         4.858458706         0.078304570
       105           10.500000         2.293291418       537.013934151         2.565143930         4.858435348         0.078722568
       106           10.600000         2.323342181       544.050841013         2.535069053         4.858411234         0.144653097
       107           10.700000         2.354215119       551.280274537         2.504171515         4.858386634         0.119266344
       108           10.800000         2.385518699       558.610550485         2.472843174         4.858361873         0.079023561
       109           10.900000         2.416859050       565.949436793         2.441478213         4.858337263         0.092077920
       110           11.000000         2.447844920       573.205315426         2.410468197         4.858313118         0.102119602
       111           11.100000         2.478092497       580.288309645         2.380197205         4.858289702         0.080012636
       112           11.200000         2.507226905       587.110636276         2.351038170         4.858265075         0.167854527
       113           11.300000         2.534927364       593.597178911         2.323340787         4.858268151         0.198959988
       114           11.400000         2.560804883       599.656848650         2.297443705         4.858248589         0.138605149
       115           11.500000         2.584578059       605.223749786         2.273652900         4.858230959         0.104314653
       116           11.600000         2.605968279       610.232640573         2.252247099         4.858215379         0.118330413
       117           11.700000         2.624729852       614.625988026         2.233472153         4.858202005         0.131632358
       118           11.800000         2.640652738       618.354607717         2.217538270         4.858191008         0.150209673
       119           11.900000         2.653565021       621.378242725         2.204617495         4.858182517         0.163457064
       120           12.000000         2.663334931       623.666036395         2.194841690         4.858176621         0.095168158
       121           12.100000         2.669872316       625.196878507         2.188301066         4.858173382         0.078164045
       122           12.200000         2.673129614       625.959631116         2.185043201         4.858172814         0.167016497
       123           12.300000         2.673102223       625.953217063         2.185072705         4.858174928         0.114980103
       124           12.400000         2.669828393       625.186592963         2.188351277         4.858179670         0.078180380
       125           12.500000         2.663388540       623.678589817         2.194798436         4.858186975         0.078241771
       126           12.600000         2.653903949       621.457608444         2.204292760         4.858196709         0.090245571
       127           12.700000         2.641535067       618.561220347         2.216673686         4.858208753         0.094484730
       128           12.800000         2.626479249       615.035639734         2.231743685         4.858222934         0.092736883
       129           12.900000         2.608967979       610.935072376         2.249271067         4.858239046         0.149456127
       130           13.000000         2.589263686       606.320970448         2.268993192         4.858256878         0.090620985
       131           13.100000         2.567656225       601.261209133         2.290619953         4.858276179         0.156753086
       132           13.200000         2.544458961       595.829167698         2.313837726         4.858296688         0.168628175
       133           13.300000         2.520004561       590.102746053         2.338313550         4.858318111         0.104545051
       134           13.400000         2.494640614       584.163338186         2.363699587         4.858340201         0.088054240
       135           13.500000         2.468724978       578.094742857         2.389637644         4.858362622         0.155115200
       136           13.600000         2.442621013       571.982046973         2.415764084         4.858385097         0.094764721
       137           13.700000         2.416692810       565.910508796         2.441714509         4.858407319         0.140257329
       138           13.800000         2.391300369       559.964428587         2.467128626         4.858428995         0.118476655
       139           13.900000         2.366794793       554.226023363         2.491655027         4.858449820         0.104144190
       140           14.000000         2.343513711       548.774354398         2.514955818         4.858469528         0.112234646
       141           14.100000         2.321776842       543.684289699         2.536711023         4.858487865         0.078261321
       142           14.200000         2.301881817       539.025524919         2.556622766         4.858504583         0.117631920
       143           14.300000         2.284100280       534.861669693         2.574419182         4.858519462         0.077560009
       144           14.400000         2.268674265       531.249401090         2.589858031         4.858532297         0.117197603
       145           14.500000         2.255813054       528.237725475         2.602729869         4.858542923         0.078314874
       146           14.600000         2.245690429       525.867337320         2.612860765         4.858551194         0.156066753
       147           14.700000         2.238442412       524.170088578         2.620114592         4.858557004         0.099183153
       148           14.800000         2.234165533       523.168583338         2.624394742         4.858560275         0.208891943
       149           14.900000         2.232915554       522.875878931         2.625645406         4.858560960         0.103771184
       150           15.000000         2.234706736       523.295315449         2.623852321         4.858559057         0.143597137
       151           15.100000         2.239511715       524.420484496         2.619042870         4.858554586         0.104271295
       152           15.200000         2.247261885       526.235321016         2.611285724         4.858547609         0.091015704
       153           15.300000         2.257848325       528.714319571         2.600689890         4.858538215         0.090678841
       154           15.400000         2.271123236       531.822869983         2.587403299         4.858526535         0.165887076
       155           15.500000         2.286901931       535.517724938         2.571610785         4.858512716         0.104911027
       156           15.600000         2.304965320       539.747580616         2.553531622         4.858496943         0.116623452
       157           15.700000         2.325062793       544.453752158         2.533416617         4.858479410         0.129670184
       158           15.800000         2.346915535       549.570950511         2.511544833         4.858460368         0.090647867
       159           15.900000         2.370220182       555.028137543         2.488219889         4.858440071         0.152571572
       160           16.000000         2.394652883       560.749477931         2.463765894         4.858418778         0.128708953
       161           16.100000         2.419873583       566.655342019         2.438523182         4.858396765         0.098768422
       162           16.200000         2.445530514       572.663357159         2.412843819         4.858374333         0.115007104
       163           16.300000         2.471264859       578.689499994         2.387086927         4.858351786         0.142279971
       164           16.400000         2.496715422       584.649190424         2.361613982         4.858329404         0.077118317
       165           16.500000         2.521523483       590.458427784         2.336784003         4.858307486         0.140391201
       166           16.600000         2.545337542       596.034902606         2.312948780         4.858286322         0.107709091
       167           16.700000         2.567817902       601.299068458         2.290448309         4.858266211         0.138480676
       168           16.800000         2.588641162       606.175195857         2.269606227         4.858247389         0.077616055
       169           16.900000         2.607504532       610.592380839         2.250725597         4.858230129         0.114780178
       170           17.000000         2.624129863       614.485490199         2.234084809         4.858214672         0.166851342
       171           17.100000         2.638267360       617.796030144         2.219933854         4.858201214         0.152449623
       172           17.200000         2.649698886       620.472920154         2.208491056         4.858189942         0.155395243
       173           17.300000         2.658240903       622.473181381         2.199940096         4.858180999         0.153861787
       174           17.400000         2.663746974       623.762523455         2.194427541         4.858174515         0.077261724
       175           17.500000         2.666109712       624.315799528         2.192060873         4.858170586         0.114835439
       176           17.600000         2.665262343       624.117373350         2.192906923         4.858169266         0.155692335
       177           17.700000         2.661179691       623.161349514         2.196990903         4.858170593         0.154516207
       178           17.800000         2.653878550       621.451660870         2.204295994         4.858174544         0.082273267
       179           17.900000         2.643417683       619.002067668         2.214763400         4.858181083         0.115018148
       180           18.000000         2.629897223       615.836017581         2.228292925         4.858190149         0.076663863
       181           18.100000         2.613457466       611.986363353         2.244744149         4.858201614         0.104404038
       182           18.200000         2.594277211       607.494974340         2.263938158         4.858215369         0.161616357
       183           18.300000         2.572571643       602.412239267         2.285659599         4.858231241         0.147433903
       184           18.400000         2.548589645       596.796438842         2.309659392         4.858249037         0.090840904
       185           18.500000         2.522610765       590.713033761         2.335657768         4.858268533         0.078193536
       186           18.600000         2.494941765       584.233857885         2.363347733         4.858289498         0.077658938
       187           18.700000         2.465912801       577.436222854         2.392398859         4.858311660         0.077475937
       188           18.800000         2.435873373       570.401970126         2.422461379         4.858334752         0.077246113
       189           18.900000         2.405187888       563.216431957         2.453170602         4.858358491         0.077698274
       190           19.000000         2.374231136       555.967371917         2.484151466         4.858382602         0.077788481
       191           19.100000         2.343383670       548.743902994         2.515023087         4.858406757         0.077452555
       192           19.200000         2.313026993       541.635361040         2.545403673         4.858430666         0.077865165
       193           19.300000         2.283538770       534.730182432         2.574915268         4.858454037         0.077353144
       194           19.400000         2.255288148       528.114809627         2.603188429         4.858476577         0.088402634
       195           19.500000         2.228631125       521.872605740         2.629866885         4.858498010         0.129539225
       196           19.600000         2.203906070       516.082805459         2.654611990         4.858518059         0.111599453
       197           19.700000         2.181429484       510.819523263         2.677107000         4.858536484         0.127900992
       198           19.800000         2.161492027       506.150822233         2.697061021         4.858553048         0.101593895
       199           19.900000         2.144354834       502.137851383         2.714212719         4.858567553         0.107619049
       200           20.000000         2.130246257       498.834083612         2.728333556         4.858579813         0.108315649
