#     Step Nr.          Time[fs]        Kin.[a.u.]          Temp[K]            Pot.[a.u.]        Cons Qty[a.u.]        UsedTime[s]
         0            0.000000         0.393255336       335.168867385         0.335110268         0.728365604         0.000000000
         1            0.100000         0.393356999       335.255514183         0.335008609         0.728365609         0.050313260
         2            0.200000         0.393497348       335.375132207         0.334868218         0.728365566         0.025402171
         3            0.300000         0.393675761       335.527192084         0.334689716         0.728365477         0.025182228
         4            0.400000         0.393890868       335.710526719         0.334474475         0.728365343         0.024514004
         5            0.500000         0.394140574       335.923349806         0.334224592         0.728365166         0.024075535
         6            0.600000         0.394422091       336.163284164         0.333942858         0.728364949         0.012172041
         7            0.700000         0.394731979       336.427399616         0.333632716         0.728364694         0.025452713
         8            0.800000         0.395066201       336.712255363         0.333298205         0.728364407         0.023302760
         9            0.900000         0.395420183       337.013951464         0.332943907         0.728364090         0.021544227
        10            1.000000         0.395788878       337.328187647         0.332574871         0.728363749         0.024028853
        11            1.100000         0.396166844       337.650325529         0.332196544         0.728363388         0.009059431
        12            1.200000         0.396548320       337.975455311         0.331814692         0.728363013         0.023695910
        13            1.300000         0.396927311       338.298466862         0.331435317         0.728362628         0.022990076
        14            1.400000         0.397297674       338.614124705         0.331064566         0.728362241         0.023899377
        15            1.500000         0.397653208       338.917144051         0.330708647         0.728361855         0.025412864
        16            1.600000         0.397987745       339.202267676         0.330373733         0.728361478         0.008145875
        17            1.700000         0.398295239       339.464342796         0.330065875         0.728361114         0.023750436
        18            1.800000         0.398569856       339.698396407         0.329790913         0.728360769         0.022785769
        19            1.900000         0.398806057       339.899709018         0.329554391         0.728360448         0.025543371
        20            2.000000         0.398998683       340.063882790         0.329361473         0.728360155         0.020996581
        21            2.100000         0.399143027       340.186906783         0.329216868         0.728359896         0.010677612
        22            2.200000         0.399234912       340.265219341         0.329124761         0.728359673         0.025799884
        23            2.300000         0.399270749       340.295762949         0.329088741         0.728359490         0.024560709
        24            2.400000         0.399247599       340.276032312         0.329111753         0.728359352         0.023817218
        25            2.500000         0.399163217       340.204114131         0.329196042         0.728359259         0.027796320
        26            2.600000         0.399016090       340.078719094         0.329343124         0.728359214         0.024463490
        27            2.700000         0.398805468       339.899206889         0.329553750         0.728359218         0.023528795
        28            2.800000         0.398531382       339.665605817         0.329827889         0.728359272         0.024145697
        29            2.900000         0.398194659       339.378618327         0.330164716         0.728359374         0.012254789
        30            3.000000         0.397796910       339.039620047         0.330562616         0.728359526         0.042382202
        31            3.100000         0.397340533       338.650653098         0.331019191         0.728359724         0.025688820
        32            3.200000         0.396828684       338.214407186         0.331531285         0.728359968         0.023732409
        33            3.300000         0.396265244       337.734191232         0.332095011         0.728360255         0.025290882
        34            3.400000         0.395654783       337.213899865         0.332705798         0.728360581         0.008669015
        35            3.500000         0.395002506       336.657968705         0.333358437         0.728360943         0.023472901
        36            3.600000         0.394314192       336.071323300         0.334047145         0.728361337         0.025279011
        37            3.700000         0.393596132       335.459325427         0.334765625         0.728361758         0.023533985
        38            3.800000         0.392855052       334.827707576         0.335507148         0.728362200         0.008766231
        39            3.900000         0.392098033       334.182505437         0.336264624         0.728362657         0.023147517
        40            4.000000         0.391332426       333.529983664         0.337030702         0.728363127         0.025021791
        41            4.100000         0.390565763       332.876562413         0.337797840         0.728363603         0.021773053
        42            4.200000         0.389805673       332.228742803         0.338558405         0.728364079         0.024176504
        43            4.300000         0.389059784       331.593026048         0.339304764         0.728364548         0.008864959
        44            4.400000         0.388335628       330.975833075         0.340029377         0.728365005         0.024227402
        45            4.500000         0.387640555       330.383426783         0.340724891         0.728365446         0.021242634
        46            4.600000         0.386981632       329.821831856         0.341384230         0.728365862         0.023577642
        47            4.700000         0.386365564       329.296760991         0.342000687         0.728366251         0.022951975
        48            4.800000         0.385798600       328.813541534         0.342568005         0.728366605         0.011697438
        49            4.900000         0.385286458       328.377046290         0.343080463         0.728366921         0.022321211
        50            5.000000         0.384834253       327.991634668         0.343532943         0.728367196         0.022773758
        51            5.100000         0.384446426       327.661092663         0.343920997         0.728367423         0.024381861
        52            5.200000         0.384126688       327.388582088         0.344240914         0.728367602         0.023313361
        53            5.300000         0.383877966       327.176598044         0.344489764         0.728367730         0.009263384
        54            5.400000         0.383702365       327.026934346         0.344665439         0.728367803         0.021130088
        55            5.500000         0.383601135       326.940657019         0.344766687         0.728367822         0.025524549
        56            5.600000         0.383574652       326.918085456         0.344793134         0.728367786         0.023400820
        57            5.700000         0.383622402       326.958782429         0.344745291         0.728367693         0.009724040
        58            5.800000         0.383742984       327.061553781         0.344624561         0.728367545         0.022521232
        59            5.900000         0.383934118       327.224455723         0.344433227         0.728367344         0.023128632
        60            6.000000         0.384192663       327.444812141         0.344174428         0.728367091         0.022819165
        61            6.100000         0.384514652       327.719241274         0.343852137         0.728366789         0.025004908
        62            6.200000         0.384895329       328.043689562         0.343471112         0.728366441         0.010829187
        63            6.300000         0.385329200       328.413475017         0.343036850         0.728366050         0.025512923
        64            6.400000         0.385810092       328.823335965         0.342555529         0.728365621         0.022555217
        65            6.500000         0.386331218       329.267487850         0.342033940         0.728365158         0.024509079
        66            6.600000         0.386885253       329.739688001         0.341479415         0.728364667         0.023408886
        67            6.700000         0.387464411       330.233300736         0.340899741         0.728364152         0.023092452
        68            6.800000         0.388060534       330.741372176         0.340303086         0.728363620         0.009186122
        69            6.900000         0.388665183       331.256710812         0.339697893         0.728363076         0.025128797
        70            7.000000         0.389269736       331.771966717         0.339092791         0.728362527         0.032721951
        71            7.100000         0.389865478       332.279713851         0.338496500         0.728361978         0.022621245
        72            7.200000         0.390443707       332.772534729         0.337917729         0.728361436         0.023847206
        73            7.300000         0.390995831       333.243106281         0.337365076         0.728360907         0.025642619
        74            7.400000         0.391513463       333.684280272         0.336846935         0.728360397         0.008999042
        75            7.500000         0.391988516       334.089164915         0.336371396         0.728359912         0.024901202
        76            7.600000         0.392413301       334.451206299         0.335946156         0.728359457         0.024526380
        77            7.700000         0.392780611       334.764262491         0.335578427         0.728359038         0.023386764
        78            7.800000         0.393083808       335.022674931         0.335274850         0.728358658         0.023496020
        79            7.900000         0.393316891       335.221329910         0.335041432         0.728358323         0.024275851
        80            8.000000         0.393474570       335.355718756         0.334883467         0.728358037         0.010484602
        81            8.100000         0.393552329       335.421992544         0.334805473         0.728357803         0.024271121
        82            8.200000         0.393546478       335.417005373         0.334811145         0.728357623         0.024215712
        83            8.300000         0.393454195       335.338353356         0.334903305         0.728357500         0.025524183
        84            8.400000         0.393273565       335.184403167         0.335083869         0.728357434         0.022357870
        85            8.500000         0.393003596       334.954310405         0.335353833         0.728357429         0.022831999
        86            8.600000         0.392644236       334.648030802         0.335713246         0.728357482         0.025419234
        87            8.700000         0.392196379       334.266325303         0.336161215         0.728357594         0.010532217
        88            8.800000         0.391661857       333.810755616         0.336695909         0.728357766         0.024633287
        89            8.900000         0.391043420       333.283665917         0.337314572         0.728357992         0.024331492
        90            9.000000         0.390344708       332.688158205         0.338013564         0.728358272         0.025026412
        91            9.100000         0.389570211       332.028059893         0.338788392         0.728358603         0.023770605
        92            9.200000         0.388725222       331.307881918         0.339633759         0.728358981         0.022606315
        93            9.300000         0.387815782       330.532772035         0.340543621         0.728359403         0.010019366
        94            9.400000         0.386848611       329.708458475         0.341511253         0.728359863         0.023210741
        95            9.500000         0.385831036       328.841186592         0.342529321         0.728360358         0.024542289
        96            9.600000         0.384770911       327.937649309         0.343589968         0.728360880         0.022097030
        97            9.700000         0.383676524       327.004910166         0.344684900         0.728361424         0.026252347
        98            9.800000         0.382556500       326.050321326         0.345805483         0.728361983         0.024724434
        99            9.900000         0.381419702       325.081436494         0.346942849         0.728362551         0.009599310
       100           10.000000         0.380275122       324.105918507         0.348087998         0.728363120         0.024004189
       101           10.100000         0.379131767       323.131444610         0.349231916         0.728363683         0.023655945
       102           10.200000         0.377998550       322.165611239         0.350365682         0.728364232         0.022293192
       103           10.300000         0.376884177       321.215838626         0.351480583         0.728364760         0.025469168
       104           10.400000         0.375797041       320.289279938         0.352568221         0.728365262         0.008573686
       105           10.500000         0.374745123       319.392737448         0.353620607         0.728365730         0.020906798
       106           10.600000         0.373735900       318.532583796         0.354630259         0.728366159         0.021996849
       107           10.700000         0.372776267       317.714694864         0.355590278         0.728366545         0.012214001
       108           10.800000         0.371872464       316.944389713         0.356494422         0.728366886         0.010308119
       109           10.900000         0.371030020       316.226379964         0.357337158         0.728367178         0.007575262
       110           11.000000         0.370253711       315.564737354         0.358113710         0.728367420         0.009582470
       111           11.100000         0.369547535       314.962868804         0.358820076         0.728367612         0.012859403
       112           11.200000         0.368914688       314.423497447         0.359453063         0.728367752         0.008607287
       113           11.300000         0.368401585       313.986183022         0.359966245         0.728367830         0.008566202
       114           11.400000         0.367967664       313.616354699         0.360400199         0.728367863         0.012488948
       115           11.500000         0.367613627       313.314611670         0.360754222         0.728367849         0.009285717
       116           11.600000         0.367339418       313.080905236         0.361028371         0.728367789         0.009725718
       117           11.700000         0.367144228       312.914546156         0.361223456         0.728367684         0.010474440
       118           11.800000         0.367026514       312.814219424         0.361341020         0.728367534         0.010200745
       119           11.900000         0.366984024       312.778005492         0.361383321         0.728367345         0.009886713
       120           12.000000         0.367013835       312.803412930         0.361353283         0.728367118         0.023952385
       121           12.100000         0.367112401       312.887419888         0.361254454         0.728366855         0.024814097
       122           12.200000         0.367275605       313.026517695         0.361090956         0.728366561         0.009877684
       123           12.300000         0.367498821       313.216762954         0.360867419         0.728366239         0.021798071
       124           12.400000         0.367776980       313.453836676         0.360588915         0.728365896         0.022653941
       125           12.500000         0.368104649       313.733106834         0.360260884         0.728365533         0.021398449
       126           12.600000         0.368476102       314.049692938         0.359889058         0.728365159         0.022513367
       127           12.700000         0.368885401       314.398535752         0.359479378         0.728364778         0.012133179
       128           12.800000         0.369326484       314.774467896         0.359037909         0.728364392         0.023711105
       129           12.900000         0.369793241       315.172281926         0.358570769         0.728364010         0.022818672
       130           13.000000         0.370279600       315.586802673         0.358084036         0.728363637         0.021346227
       131           13.100000         0.370779611       316.012958286         0.357583665         0.728363275         0.024029194
       132           13.200000         0.371287522       316.445847882         0.357075409         0.728362932         0.012162270
       133           13.300000         0.371797862       316.880806885         0.356564748         0.728362610         0.007936268
       134           13.400000         0.372305502       317.313464719         0.356056812         0.728362314         0.010161084
       135           13.500000         0.372805723       317.739799800         0.355556325         0.728362048         0.010291677
       136           13.600000         0.373294278       318.156191946         0.355067536         0.728361814         0.008347183
       137           13.700000         0.373767436       318.559461725         0.354594179         0.728361615         0.009950181
       138           13.800000         0.374222029       318.946907905         0.354139426         0.728361454         0.009629559
       139           13.900000         0.374655485       319.316339406         0.353705848         0.728361332         0.010789261
       140           14.000000         0.375065849       319.666090397         0.353295401         0.728361250         0.010946020
       141           14.100000         0.375451803       319.995036325         0.352909405         0.728361208         0.009807372
       142           14.200000         0.375812675       320.302604596         0.352548530         0.728361205         0.008111236
       143           14.300000         0.376148431       320.588767789         0.352212811         0.728361242         0.010842207
       144           14.400000         0.376459670       320.854034064         0.351901648         0.728361317         0.009854778
       145           14.500000         0.376747597       321.099432223         0.351613832         0.728361429         0.009113821
       146           14.600000         0.377014001       321.326486617         0.351347572         0.728361573         0.026066737
       147           14.700000         0.377261212       321.537182824         0.351100538         0.728361750         0.024539390
       148           14.800000         0.377492057       321.733930589         0.350869898         0.728361955         0.021442318
       149           14.900000         0.377709812       321.919522045         0.350652372         0.728362184         0.008897764
       150           15.000000         0.377918143       322.097080664         0.350444290         0.728362433         0.025994913
       151           15.100000         0.378121038       322.270006867         0.350241661         0.728362698         0.023362763
       152           15.200000         0.378322744       322.441919443         0.350040232         0.728362975         0.020528737
       153           15.300000         0.378527691       322.616594373         0.349835567         0.728363258         0.009418949
       154           15.400000         0.378740416       322.797898586         0.349623128         0.728363544         0.024728213
       155           15.500000         0.378965486       322.989724350         0.349398340         0.728363826         0.011136748
       156           15.600000         0.379207421       323.195924175         0.349156680         0.728364101         0.009319823
       157           15.700000         0.379470615       323.420242672         0.348893747         0.728364363         0.009263655
       158           15.800000         0.379759257       323.666250397         0.348605349         0.728364607         0.010606969
       159           15.900000         0.380077257       323.937279783         0.348287572         0.728364829         0.010525867
       160           16.000000         0.380428172       324.236362184         0.347936853         0.728365025         0.010509344
       161           16.100000         0.380815138       324.566169977         0.347550053         0.728365191         0.009262716
       162           16.200000         0.381240805       324.928963633         0.347124517         0.728365322         0.011310596
       163           16.300000         0.381707287       325.326542547         0.346658130         0.728365417         0.023666296
       164           16.400000         0.382216103       325.760203077         0.346149369         0.728365471         0.021126422
       165           16.500000         0.382768140       326.230701151         0.345597344         0.728365485         0.023581567
       166           16.600000         0.383363616       326.738221147         0.345001838         0.728365454         0.026032527
       167           16.700000         0.384002052       327.282355922         0.344363326         0.728365378         0.010130044
       168           16.800000         0.384682261       327.862093332         0.343682996         0.728365257         0.015779087
       169           16.900000         0.385402338       328.475809565         0.342962753         0.728365091         0.025139013
       170           17.000000         0.386159660       329.121270139         0.342205221         0.728364880         0.022574489
       171           17.100000         0.386950901       329.795639605         0.341413727         0.728364627         0.020867265
       172           17.200000         0.387772054       330.495502535         0.340592280         0.728364334         0.011318214
       173           17.300000         0.388618460       331.216889280         0.339745541         0.728364002         0.025213026
       174           17.400000         0.389484854       331.955310690         0.338878781         0.728363635         0.022165743
       175           17.500000         0.390365409       332.705802219         0.337997826         0.728363236         0.021787560
       176           17.600000         0.391253802       333.462973176         0.337109008         0.728362810         0.023393181
       177           17.700000         0.392143273       334.221063024         0.336219089         0.728362361         0.013972992
       178           17.800000         0.393026702       334.974003477         0.335335194         0.728361895         0.010128079
       179           17.900000         0.393896686       335.715485796         0.334464730         0.728361417         0.009231611
       180           18.000000         0.394745628       336.439032943         0.333615303         0.728360931         0.010655630
       181           18.100000         0.395565817       337.138074084         0.332794628         0.728360445         0.011354230
       182           18.200000         0.396349525       337.806023549         0.332010438         0.728359963         0.008031912
       183           18.300000         0.397089099       338.436357189         0.331270394         0.728359492         0.009331641
       184           18.400000         0.397777050       339.022693679         0.330581987         0.728359038         0.011963871
       185           18.500000         0.398406157       339.558877354         0.329952450         0.728358607         0.008408894
       186           18.600000         0.398969555       340.039057454         0.329388650         0.728358205         0.024468537
       187           18.700000         0.399460826       340.457764593         0.328897011         0.728357838         0.026228616
       188           18.800000         0.399874086       340.809983370         0.328483423         0.728357510         0.030222244
       189           18.900000         0.400204067       341.091224008         0.328153159         0.728357226         0.009501057
       190           19.000000         0.400446192       341.297584872         0.327910799         0.728356991         0.025508390
       191           19.100000         0.400596630       341.425802675         0.327760178         0.728356808         0.009709462
       192           19.200000         0.400652356       341.473297277         0.327704321         0.728356677         0.008512683
       193           19.300000         0.400611184       341.438206877         0.327745418         0.728356602         0.011394286
       194           19.400000         0.400471789       341.319400875         0.327884793         0.728356581         0.012969047
       195           19.500000         0.400307782       341.179619469         0.328048723         0.728356506         0.007974599
       196           19.600000         0.400046863       340.957240089         0.328309636         0.728356499         0.010073361
       197           19.700000         0.399689285       340.652478058         0.328667275         0.728356560         0.011108404
       198           19.800000         0.399236323       340.266421507         0.329120363         0.728356685         0.022677490
       199           19.900000         0.398690260       339.801015821         0.329666613         0.728356873         0.007997265
       200           20.000000         0.398054352       339.259035656         0.330302770         0.728357122         0.022148672
