 DBCSR| Multiplication driver                                               BLAS
 DBCSR| Multrec recursion limit                                              512
 DBCSR| Multiplication stack size                                           1000
 DBCSR| Maximum elements for images                                    UNLIMITED
 DBCSR| Randmat seed                                                    12341313
 DBCSR| Multiplication size stacks                                             3


  **** **** ******  **  PROGRAM STARTED AT               2025-09-01 09:31:03.302
 ***** ** ***  *** **   PROGRAM STARTED ON                       DESKTOP-FQJIPKD
 **    ****   ******    PROGRAM STARTED BY                                   sam
 ***** **    ** ** **   PROGRAM PROCESS ID                                  4399
  **** **  *******  **  PROGRAM STARTED IN /home/sam/flavoured-cptk/regtest-fobs
                                           h/V5-regtests/run-fssh-0-sulf-DCVSN5

 CP2K| version string:                    CP2K version 4.0 (Development Version)
 CP2K| source code revision number:                                git:247170159
 CP2K| cp2kflags: fftw3                                                         
 CP2K| is freely available from                            https://www.cp2k.org/
 CP2K| Program compiled at                         Mon Sep  1 09:24:18 CEST 2025
 CP2K| Program compiled on                                       DESKTOP-FQJIPKD
 CP2K| Program compiled for                                      cp2k_local_dell
 CP2K| Data directory path                    /home/sam/flavoured-cptk/cp2k/data
 CP2K| Input file name                                                   run.inp

 GLOBAL| Force Environment number                                              1
 GLOBAL| Basis set file name                                           POTENTIAL
 GLOBAL| MM Potential file name                                     MM_POTENTIAL
 GLOBAL| Coordinate file name                                       pos-init.xyz
 GLOBAL| Force Environment number                                              2
 GLOBAL| Basis set file name                                           POTENTIAL
 GLOBAL| MM Potential file name                                     MM_POTENTIAL
 GLOBAL| Coordinate file name                                       pos-init.xyz
 GLOBAL| Force Environment number                                              3
 GLOBAL| Basis set file name                                           POTENTIAL
 GLOBAL| MM Potential file name                                     MM_POTENTIAL
 GLOBAL| Coordinate file name                                       pos-init.xyz
 GLOBAL| Method name                                                        CP2K
 GLOBAL| Project name                                                        run
 GLOBAL| Preferred FFT library                                             FFTW3
 GLOBAL| Preferred diagonalization lib.                                       SL
 GLOBAL| Run type                                                             MD
 GLOBAL| All-to-all communication in single precision                          F
 GLOBAL| FFTs using library dependent lengths                                  F
 GLOBAL| Global print level                                                  LOW
 GLOBAL| Total number of message passing processes                             1
 GLOBAL| Number of threads for this process                                    1
 GLOBAL| This output is from process                                           0
 GLOBAL| CPU model name :  Intel(R) Core(TM) i7-14700

 MEMORY| system memory details [Kb]
 MEMORY|                        rank 0           min           max       average
 MEMORY| MemTotal             16245416      16245416      16245416      16245416
 MEMORY| MemFree              12195468      12195468      12195468      12195468
 MEMORY| Buffers                376832        376832        376832        376832
 MEMORY| Cached                2742456       2742456       2742456       2742456
 MEMORY| Slab                   367344        367344        367344        367344
 MEMORY| SReclaimable           271444        271444        271444        271444
 MEMORY| MemLikelyFree        15586200      15586200      15586200      15586200

 TOTAL NUMBER OF FORCE EVALS           3
 NOTE:n_subforce_eval           2
 DECOMP =  T
 DECOMP =  T

 MD| Molecular Dynamics Protocol 
 MD| Ensemble Type                                                           NVE
 MD| Number of Time Steps                                                    200
 MD| Time Step [fs]                                                         0.10
 MD| Temperature [K]                                                      300.00
 MD| Temperature tolerance [K]                                              0.00
 MD| Print MD information every                                        1 step(s)
 MD| File type     Print frequency[steps]                             File names
 MD| Coordinates            1                                      run-pos-1.xyz
 MD| Velocities             1                                      run-vel-1.xyz
 MD| Energies               1                                         run-1.ener
 MD| Dump                 200                                      run-1.restart

 ROT| Rotational Analysis Info 
 ROT| Principal axes and moments of inertia in atomic units:
 ROT|                                1                 2                 3
 ROT| EIGENVALUES            0.824108463E+10   0.346166879E+11   0.388392190E+11
 ROT|      X                     0.089486545      -0.334542892       0.938122173
 ROT|      Y                    -0.984657769      -0.171384656       0.032808204
 ROT|      Z                    -0.149803995       0.926665178       0.344746879
 ROT| Numer of Rotovibrational vectors:     6

 Calculation of degrees of freedom
                                                      Number of atoms:      1696
                                 Number of Intramolecular constraints:         0
                                 Number of Intermolecular constraints:         0
                                  Invariants(translation + rotations):         3
                                                   Degrees of freedom:      5085


 Restraints Information
                                  Number of Intramolecular restraints:         0
                                  Number of Intermolecular restraints:         0

 *** WARNING in motion/thermostat/thermostat_methods.F:280 :: Thermostat ***
 *** for Particles has been defined but the ensemble provided does not   ***
 *** support thermostat for Particles! Ignoring thermostat input.        ***

 ************************** Velocities initialization **************************
 Initial Temperature                                                    248.47 K
 COM velocity:           -0.000000000001      0.000000000001     -0.000000000000
 *******************************************************************************

 RESTART_KEY F
 WTP_4.2_Debug1
 ACTIVE STATE           1
 FOBSH| ACTIVE STATE =            1

 ENERGY| Total FORCE_EVAL ( MIXED ) energy (a.u.):             7.237185787851891

 STEP NUMBER                  =            0
 CPU TIME [s]                 =    0.0000000000000000        0.0000000000000000     

 MD_ENERGIES| Initialization proceeding


 ******************************** GO CP2K GO! **********************************
 INITIAL POTENTIAL ENERGY[hartree]     =                      0.723718578785E+01
 INITIAL KINETIC ENERGY[hartree]       =                      0.200058441000E+01
 INITIAL TEMPERATURE[K]                =                                 248.470
 INITIAL VOLUME[bohr^3]                =                      0.133470247634E+06
 INITIAL CELL LNTHS[bohr]   =      0.2774571E+02   0.1046338E+03   0.4734671E+02
 INITIAL CELL ANGLS[deg]    =      0.9000000E+02   0.1038281E+03   0.9000000E+02
 ******************************** GO CP2K GO! **********************************
 FOBSH| *** OFF-DIAGONAL GRADIENT CALCULATION
 FOBSH| Put former active state           1 in new active state           1
 RANDOM_NUMBER_HOPPING_PROBA  0.25416817536274450     
 FOBSH| ACTIVE STATE =            1

 ENERGY| Total FORCE_EVAL ( MIXED ) energy (a.u.):             7.384271234607318

 FOBSH| *** WARNING: Projection to avoid spurious transfer get lambda =    1.0640004763236297      ***
 FOBSH| CASE1: no hop and no trivial crossing
 ENTER integrator.F
 STEP NUMBER                  =            1
 CPU TIME [s]                 =    6.6707818999930169E-002   6.6707818999930169E-002

 *******************************************************************************
 ENSEMBLE TYPE                =                                              NVE
 STEP NUMBER                  =                                                1
 TIME [fs]                    =                                         0.100000
 CONSERVED QUANTITY [hartree] =                               0.923984444181E+01

                                              INSTANTANEOUS             AVERAGES
 CPU TIME [s]                 =                        0.07                 0.07
 ENERGY DRIFT PER ATOM [K]    =          0.386199089161E+00   0.000000000000E+00
 POTENTIAL ENERGY[hartree]    =          0.738427123461E+01   0.738427123461E+01
 KINETIC ENERGY [hartree]     =          0.185557320720E+01   0.185557320720E+01
 TEMPERATURE [K]              =                     230.459              230.459
 *******************************************************************************

 FOBSH| Put former active state           1 in new active state           1
 RANDOM_NUMBER_HOPPING_PROBA  0.57267287283110380     
 FOBSH| ACTIVE STATE =            1

 ENERGY| Total FORCE_EVAL ( MIXED ) energy (a.u.):             7.493483668374632

 FOBSH| *** WARNING: Projection to avoid spurious transfer get lambda =    1.0672332624526211      ***
 FOBSH| CASE1: no hop and no trivial crossing
 ENTER integrator.F
 STEP NUMBER                  =            2
 CPU TIME [s]                 =    9.2919239996263059E-003   3.7999871499778237E-002

 *******************************************************************************
 ENSEMBLE TYPE                =                                              NVE
 STEP NUMBER                  =                                                2
 TIME [fs]                    =                                         0.200000
 CONSERVED QUANTITY [hartree] =                               0.924364289080E+01

                                              INSTANTANEOUS             AVERAGES
 CPU TIME [s]                 =                        0.01                 0.04
 ENERGY DRIFT PER ATOM [K]    =          0.109342426210E+01   0.546712131052E+00
 POTENTIAL ENERGY[hartree]    =          0.749348366837E+01   0.743887745149E+01
 KINETIC ENERGY [hartree]     =          0.175015922243E+01   0.180286621481E+01
 TEMPERATURE [K]              =                     217.367              223.913
 *******************************************************************************

 FOBSH| Put former active state           1 in new active state           1
 RANDOM_NUMBER_HOPPING_PROBA  0.70124607809334638     
 FOBSH| ACTIVE STATE =            1

 ENERGY| Total FORCE_EVAL ( MIXED ) energy (a.u.):             7.562711625797525

 FOBSH| *** WARNING: Projection to avoid spurious transfer get lambda =    1.0030568963283335      ***
 FOBSH| CASE1: no hop and no trivial crossing
 ENTER integrator.F
 STEP NUMBER                  =            3
 CPU TIME [s]                 =    9.1773750000356813E-003   2.8392372666530719E-002

 *******************************************************************************
 ENSEMBLE TYPE                =                                              NVE
 STEP NUMBER                  =                                                3
 TIME [fs]                    =                                         0.300000
 CONSERVED QUANTITY [hartree] =                               0.924968580691E+01

                                              INSTANTANEOUS             AVERAGES
 CPU TIME [s]                 =                        0.01                 0.03
 ENERGY DRIFT PER ATOM [K]    =          0.221854201283E+01   0.110398875831E+01
 POTENTIAL ENERGY[hartree]    =          0.756271162580E+01   0.748015550959E+01
 KINETIC ENERGY [hartree]     =          0.168697418111E+01   0.176423553691E+01
 TEMPERATURE [K]              =                     209.520              219.115
 *******************************************************************************

 FOBSH| Put former active state           1 in new active state           1
 RANDOM_NUMBER_HOPPING_PROBA  0.44587149488303601     
 FOBSH| ACTIVE STATE =            1

 ENERGY| Total FORCE_EVAL ( MIXED ) energy (a.u.):             7.591253651617430

 FOBSH| *** WARNING: Projection to avoid spurious transfer get lambda =   0.99341703325290764      ***
 FOBSH| CASE1: no hop and no trivial crossing
 ENTER integrator.F
 STEP NUMBER                  =            4
 CPU TIME [s]                 =    9.2129200002091238E-003   2.3597509499950320E-002

 *******************************************************************************
 ENSEMBLE TYPE                =                                              NVE
 STEP NUMBER                  =                                                4
 TIME [fs]                    =                                         0.400000
 CONSERVED QUANTITY [hartree] =                               0.925815381202E+01

                                              INSTANTANEOUS             AVERAGES
 CPU TIME [s]                 =                        0.01                 0.02
 ENERGY DRIFT PER ATOM [K]    =          0.379518195054E+01   0.177678705637E+01
 POTENTIAL ENERGY[hartree]    =          0.759125365162E+01   0.750793004510E+01
 KINETIC ENERGY [hartree]     =          0.166690016041E+01   0.173990169279E+01
 TEMPERATURE [K]              =                     207.026              216.093
 *******************************************************************************

 FOBSH| Put former active state           1 in new active state           1
 RANDOM_NUMBER_HOPPING_PROBA  0.99318002992808974     
 FOBSH| ACTIVE STATE =            1

 ENERGY| Total FORCE_EVAL ( MIXED ) energy (a.u.):             7.579195468720528

 FOBSH| *** WARNING: Projection to avoid spurious transfer get lambda =   0.98016108086707709      ***
 FOBSH| CASE1: no hop and no trivial crossing
 ENTER integrator.F
 STEP NUMBER                  =            5
 CPU TIME [s]                 =    9.1078579998793430E-003   2.0699579199936126E-002

 *******************************************************************************
 ENSEMBLE TYPE                =                                              NVE
 STEP NUMBER                  =                                                5
 TIME [fs]                    =                                         0.500000
 CONSERVED QUANTITY [hartree] =                               0.926929712938E+01

                                              INSTANTANEOUS             AVERAGES
 CPU TIME [s]                 =                        0.01                 0.02
 ENERGY DRIFT PER ATOM [K]    =          0.586993260862E+01   0.259541616682E+01
 POTENTIAL ENERGY[hartree]    =          0.757919546872E+01   0.752218312982E+01
 KINETIC ENERGY [hartree]     =          0.169010166066E+01   0.172994168636E+01
 TEMPERATURE [K]              =                     209.908              214.856
 *******************************************************************************

 FOBSH| Put former active state           1 in new active state           1
 RANDOM_NUMBER_HOPPING_PROBA  0.52949100177132724     
 FOBSH| ACTIVE STATE =            1

 ENERGY| Total FORCE_EVAL ( MIXED ) energy (a.u.):             7.527012494791419

 FOBSH| *** WARNING: Projection to avoid spurious transfer get lambda =   0.96245120149253849      ***
 FOBSH| CASE1: no hop and no trivial crossing
 ENTER integrator.F
 STEP NUMBER                  =            6
 CPU TIME [s]                 =    1.0635921999892162E-002   1.9022302999928797E-002

 *******************************************************************************
 ENSEMBLE TYPE                =                                              NVE
 STEP NUMBER                  =                                                6
 TIME [fs]                    =                                         0.600000
 CONSERVED QUANTITY [hartree] =                               0.928318821696E+01

                                              INSTANTANEOUS             AVERAGES
 CPU TIME [s]                 =                        0.01                 0.02
 ENERGY DRIFT PER ATOM [K]    =          0.845628478270E+01   0.357222760280E+01
 POTENTIAL ENERGY[hartree]    =          0.752701249479E+01   0.752298802398E+01
 KINETIC ENERGY [hartree]     =          0.175617572217E+01   0.173431402566E+01
 TEMPERATURE [K]              =                     218.114              215.399
 *******************************************************************************

 FOBSH| Put former active state           1 in new active state           1
 RANDOM_NUMBER_HOPPING_PROBA  0.98494358986342956     
 FOBSH| ACTIVE STATE =            1

 ENERGY| Total FORCE_EVAL ( MIXED ) energy (a.u.):             7.435667757359736

 FOBSH| *** WARNING: Projection to avoid spurious transfer get lambda =    1.0136270518546135      ***
 FOBSH| CASE1: no hop and no trivial crossing
 ENTER integrator.F
 STEP NUMBER                  =            7
 CPU TIME [s]                 =    9.1440559999682591E-003   1.7611124857077290E-002

 *******************************************************************************
 ENSEMBLE TYPE                =                                              NVE
 STEP NUMBER                  =                                                7
 TIME [fs]                    =                                         0.700000
 CONSERVED QUANTITY [hartree] =                               0.929983396583E+01

                                              INSTANTANEOUS             AVERAGES
 CPU TIME [s]                 =                        0.01                 0.02
 ENERGY DRIFT PER ATOM [K]    =          0.115555215091E+02   0.471269816085E+01
 POTENTIAL ENERGY[hartree]    =          0.743566775736E+01   0.751051370018E+01
 KINETIC ENERGY [hartree]     =          0.186416620847E+01   0.175286433749E+01
 TEMPERATURE [K]              =                     231.527              217.703
 *******************************************************************************

 FOBSH| Put former active state           1 in new active state           1
 RANDOM_NUMBER_HOPPING_PROBA  0.91904792263218393     
 FOBSH| ACTIVE STATE =            1

 ENERGY| Total FORCE_EVAL ( MIXED ) energy (a.u.):             7.306645812341588

 FOBSH| *** WARNING: Projection to avoid spurious transfer get lambda =    1.0084969655064309      ***
 FOBSH| CASE1: no hop and no trivial crossing
 ENTER integrator.F
 STEP NUMBER                  =            8
 CPU TIME [s]                 =    1.0062993000246934E-002   1.6667608374973497E-002

 *******************************************************************************
 ENSEMBLE TYPE                =                                              NVE
 STEP NUMBER                  =                                                8
 TIME [fs]                    =                                         0.800000
 CONSERVED QUANTITY [hartree] =                               0.931922848247E+01

                                              INSTANTANEOUS             AVERAGES
 CPU TIME [s]                 =                        0.01                 0.02
 ENERGY DRIFT PER ATOM [K]    =          0.151665454858E+02   0.601942907646E+01
 POTENTIAL ENERGY[hartree]    =          0.730664581234E+01   0.748503021420E+01
 KINETIC ENERGY [hartree]     =          0.201258267013E+01   0.178532912907E+01
 TEMPERATURE [K]              =                     249.960              221.735
 *******************************************************************************

 FOBSH| Put former active state           1 in new active state           1
 RANDOM_NUMBER_HOPPING_PROBA  0.90271135064865493     
 FOBSH| ACTIVE STATE =            1

 ENERGY| Total FORCE_EVAL ( MIXED ) energy (a.u.):             7.141940062964491

 FOBSH| *** WARNING: Projection to avoid spurious transfer get lambda =    1.0122431439849866      ***
 FOBSH| CASE1: no hop and no trivial crossing
 ENTER integrator.F
 STEP NUMBER                  =            9
 CPU TIME [s]                 =    9.3130330005806172E-003   1.5850433333374287E-002

 *******************************************************************************
 ENSEMBLE TYPE                =                                              NVE
 STEP NUMBER                  =                                                9
 TIME [fs]                    =                                         0.900000
 CONSERVED QUANTITY [hartree] =                               0.934136421439E+01

                                              INSTANTANEOUS             AVERAGES
 CPU TIME [s]                 =                        0.01                 0.02
 ENERGY DRIFT PER ATOM [K]    =          0.192879505299E+02   0.749370923796E+01
 POTENTIAL ENERGY[hartree]    =          0.714194006296E+01   0.744690908629E+01
 KINETIC ENERGY [hartree]     =          0.219942415143E+01   0.183133968711E+01
 TEMPERATURE [K]              =                     273.165              227.450
 *******************************************************************************

 FOBSH| Put former active state           1 in new active state           1
 RANDOM_NUMBER_HOPPING_PROBA  0.35228913307100063     
 FOBSH| ACTIVE STATE =            1

 ENERGY| Total FORCE_EVAL ( MIXED ) energy (a.u.):             6.944024584597804

 FOBSH| *** WARNING: Projection to avoid spurious transfer get lambda =    1.0179357481827378      ***
 FOBSH| CASE1: no hop and no trivial crossing
 ENTER integrator.F
 STEP NUMBER                  =           10
 CPU TIME [s]                 =    9.3251109992706915E-003   1.5197901099963929E-002

 *******************************************************************************
 ENSEMBLE TYPE                =                                              NVE
 STEP NUMBER                  =                                               10
 TIME [fs]                    =                                         1.000000
 CONSERVED QUANTITY [hartree] =                               0.936623383038E+01

                                              INSTANTANEOUS             AVERAGES
 CPU TIME [s]                 =                        0.01                 0.02
 ENERGY DRIFT PER ATOM [K]    =          0.239183716566E+02   0.913617547982E+01
 POTENTIAL ENERGY[hartree]    =          0.694402458460E+01   0.739662063612E+01
 KINETIC ENERGY [hartree]     =          0.242220924578E+01   0.189042664298E+01
 TEMPERATURE [K]              =                     300.835              234.788
 *******************************************************************************

 FOBSH| Put former active state           1 in new active state           1
 RANDOM_NUMBER_HOPPING_PROBA  0.85881859311700515     
 FOBSH| ACTIVE STATE =            1

 ENERGY| Total FORCE_EVAL ( MIXED ) energy (a.u.):             6.715817296599392

 FOBSH| *** WARNING: Projection to avoid spurious transfer get lambda =    1.0225019444583408      ***
 FOBSH| CASE1: no hop and no trivial crossing
 ENTER integrator.F
 STEP NUMBER                  =           11
 CPU TIME [s]                 =    9.1434180003489018E-003   1.4647493545453472E-002

 *******************************************************************************
 ENSEMBLE TYPE                =                                              NVE
 STEP NUMBER                  =                                               11
 TIME [fs]                    =                                         1.100000
 CONSERVED QUANTITY [hartree] =                               0.939382996758E+01

                                              INSTANTANEOUS             AVERAGES
 CPU TIME [s]                 =                        0.01                 0.01
 ENERGY DRIFT PER ATOM [K]    =          0.290564379949E+02   0.109471084357E+02
 POTENTIAL ENERGY[hartree]    =          0.671581729660E+01   0.733472942343E+01
 KINETIC ENERGY [hartree]     =          0.267801267099E+01   0.196202537280E+01
 TEMPERATURE [K]              =                     332.605              243.681
 *******************************************************************************

 FOBSH| Put former active state           1 in new active state           1
 RANDOM_NUMBER_HOPPING_PROBA  0.44990018116758157     
 FOBSH| ACTIVE STATE =            1

 ENERGY| Total FORCE_EVAL ( MIXED ) energy (a.u.):             6.460637139130880

 FOBSH| *** WARNING: Projection to avoid spurious transfer get lambda =    1.0247818537912825      ***
 FOBSH| CASE1: no hop and no trivial crossing
 ENTER integrator.F
 STEP NUMBER                  =           12
 CPU TIME [s]                 =    9.3804380003348342E-003   1.4208572250026918E-002

 *******************************************************************************
 ENSEMBLE TYPE                =                                              NVE
 STEP NUMBER                  =                                               12
 TIME [fs]                    =                                         1.200000
 CONSERVED QUANTITY [hartree] =                               0.942414485766E+01

                                              INSTANTANEOUS             AVERAGES
 CPU TIME [s]                 =                        0.01                 0.01
 ENERGY DRIFT PER ATOM [K]    =          0.347007031720E+02   0.129265746638E+02
 POTENTIAL ENERGY[hartree]    =          0.646063713913E+01   0.726188839974E+01
 KINETIC ENERGY [hartree]     =          0.296350771853E+01   0.204548223494E+01
 TEMPERATURE [K]              =                     368.063              254.046
 *******************************************************************************

 FOBSH| Put former active state           1 in new active state           1
 RANDOM_NUMBER_HOPPING_PROBA  0.92520671115326614     
 FOBSH| ACTIVE STATE =            1

 ENERGY| Total FORCE_EVAL ( MIXED ) energy (a.u.):             6.182156030859701

 FOBSH| *** WARNING: Projection to avoid spurious transfer get lambda =    1.0245304004019717      ***
 FOBSH| CASE1: no hop and no trivial crossing
 ENTER integrator.F
 STEP NUMBER                  =           13
 CPU TIME [s]                 =    9.1907819996777107E-003   1.3822588384615442E-002

 *******************************************************************************
 ENSEMBLE TYPE                =                                              NVE
 STEP NUMBER                  =                                               13
 TIME [fs]                    =                                         1.300000
 CONSERVED QUANTITY [hartree] =                               0.945716994355E+01

                                              INSTANTANEOUS             AVERAGES
 CPU TIME [s]                 =                        0.01                 0.01
 ENERGY DRIFT PER ATOM [K]    =          0.408495739676E+02   0.150744976871E+02
 POTENTIAL ENERGY[hartree]    =          0.618215603086E+01   0.717883206367E+01
 KINETIC ENERGY [hartree]     =          0.327501391269E+01   0.214006159477E+01
 TEMPERATURE [K]              =                     406.752              265.792
 *******************************************************************************

 FOBSH| Put former active state           1 in new active state           1
 RANDOM_NUMBER_HOPPING_PROBA  0.47449029509303664     
 FOBSH| ACTIVE STATE =            1

 ENERGY| Total FORCE_EVAL ( MIXED ) energy (a.u.):             5.884346481574384

 FOBSH| *** WARNING: Projection to avoid spurious transfer get lambda =    1.0218840294937952      ***
 FOBSH| CASE1: no hop and no trivial crossing
 ENTER integrator.F
 STEP NUMBER                  =           14
 CPU TIME [s]                 =    9.2821669995828415E-003   1.3498272571398828E-002

 *******************************************************************************
 ENSEMBLE TYPE                =                                              NVE
 STEP NUMBER                  =                                               14
 TIME [fs]                    =                                         1.400000
 CONSERVED QUANTITY [hartree] =                               0.949289557178E+01

                                              INSTANTANEOUS             AVERAGES
 CPU TIME [s]                 =                        0.01                 0.01
 ENERGY DRIFT PER ATOM [K]    =          0.475012530215E+02   0.173906944967E+02
 POTENTIAL ENERGY[hartree]    =          0.588434648157E+01   0.708636880781E+01
 KINETIC ENERGY [hartree]     =          0.360854909021E+01   0.224495355873E+01
 TEMPERATURE [K]              =                     448.176              278.820
 *******************************************************************************

 FOBSH| Put former active state           1 in new active state           1
 RANDOM_NUMBER_HOPPING_PROBA  0.46668003640823247     
 FOBSH| ACTIVE STATE =            1

 ENERGY| Total FORCE_EVAL ( MIXED ) energy (a.u.):             5.571425659442588

 FOBSH| *** WARNING: Projection to avoid spurious transfer get lambda =    1.0170926309789672      ***
 FOBSH| CASE1: no hop and no trivial crossing
 ENTER integrator.F
 STEP NUMBER                  =           15
 CPU TIME [s]                 =    9.0321010002298863E-003   1.3200527799987566E-002

 *******************************************************************************
 ENSEMBLE TYPE                =                                              NVE
 STEP NUMBER                  =                                               15
 TIME [fs]                    =                                         1.500000
 CONSERVED QUANTITY [hartree] =                               0.953131096743E+01

                                              INSTANTANEOUS             AVERAGES
 CPU TIME [s]                 =                        0.01                 0.01
 ENERGY DRIFT PER ATOM [K]    =          0.546537341737E+02   0.198748971419E+02
 POTENTIAL ENERGY[hartree]    =          0.557142565944E+01   0.698537259792E+01
 KINETIC ENERGY [hartree]     =          0.395988530799E+01   0.235928234201E+01
 TEMPERATURE [K]              =                     491.812              293.019
 *******************************************************************************

 FOBSH| Put former active state           1 in new active state           1
 RANDOM_NUMBER_HOPPING_PROBA  0.62298518199960662     
 FOBSH| ACTIVE STATE =            1

 ENERGY| Total FORCE_EVAL ( MIXED ) energy (a.u.):             5.247796464671411

 FOBSH| *** WARNING: Projection to avoid spurious transfer get lambda =    1.0104217359572698      ***
 FOBSH| CASE1: no hop and no trivial crossing
 ENTER integrator.F
 STEP NUMBER                  =           16
 CPU TIME [s]                 =    9.0682840000226861E-003   1.2942262562489761E-002

 *******************************************************************************
 ENSEMBLE TYPE                =                                              NVE
 STEP NUMBER                  =                                               16
 TIME [fs]                    =                                         1.600000
 CONSERVED QUANTITY [hartree] =                               0.957240402230E+01

                                              INSTANTANEOUS             AVERAGES
 CPU TIME [s]                 =                        0.01                 0.01
 ENERGY DRIFT PER ATOM [K]    =          0.623047630265E+02   0.225267637597E+02
 POTENTIAL ENERGY[hartree]    =          0.524779646467E+01   0.687677408959E+01
 KINETIC ENERGY [hartree]     =          0.432460755763E+01   0.248211516799E+01
 TEMPERATURE [K]              =                     537.110              308.275
 *******************************************************************************

 FOBSH| Put former active state           1 in new active state           1
 RANDOM_NUMBER_HOPPING_PROBA   3.7052546326753137E-002
 FOBSH| ACTIVE STATE =            1

 ENERGY| Total FORCE_EVAL ( MIXED ) energy (a.u.):             4.917986692350902

 FOBSH| *** WARNING: Projection to avoid spurious transfer get lambda =    1.0021839896462708      ***
 FOBSH| CASE1: no hop and no trivial crossing
 ENTER integrator.F
 STEP NUMBER                  =           17
 CPU TIME [s]                 =    8.9666499998202198E-003   1.2708402999979787E-002

 *******************************************************************************
 ENSEMBLE TYPE                =                                              NVE
 STEP NUMBER                  =                                               17
 TIME [fs]                    =                                         1.700000
 CONSERVED QUANTITY [hartree] =                               0.961616118177E+01

                                              INSTANTANEOUS             AVERAGES
 CPU TIME [s]                 =                        0.01                 0.01
 ENERGY DRIFT PER ATOM [K]    =          0.704518158706E+02   0.253458844721E+02
 POTENTIAL ENERGY[hartree]    =          0.491798669235E+01   0.676155130152E+01
 KINETIC ENERGY [hartree]     =          0.469817448942E+01   0.261247159866E+01
 TEMPERATURE [K]              =                     583.506              324.465
 *******************************************************************************

 FOBSH| Put former active state           1 in new active state           1
 RANDOM_NUMBER_HOPPING_PROBA   3.0732306044623178E-002
 FOBSH| ACTIVE STATE =            1

 ENERGY| Total FORCE_EVAL ( MIXED ) energy (a.u.):             4.586587042387050

 FOBSH| *** WARNING: Projection to avoid spurious transfer get lambda =   0.99235642127604629      ***
 FOBSH| CASE1: no hop and no trivial crossing
 ENTER integrator.F
 STEP NUMBER                  =           18
 CPU TIME [s]                 =    9.5023430003493559E-003   1.2530288555555873E-002

 *******************************************************************************
 ENSEMBLE TYPE                =                                              NVE
 STEP NUMBER                  =                                               18
 TIME [fs]                    =                                         1.800000
 CONSERVED QUANTITY [hartree] =                               0.966256735636E+01

                                              INSTANTANEOUS             AVERAGES
 CPU TIME [s]                 =                        0.01                 0.01
 ENERGY DRIFT PER ATOM [K]    =          0.790920832303E+02   0.283317844031E+02
 POTENTIAL ENERGY[hartree]    =          0.458658704239E+01   0.664071995379E+01
 KINETIC ENERGY [hartree]     =          0.507598031397E+01   0.274933319396E+01
 TEMPERATURE [K]              =                     630.429              341.463
 *******************************************************************************

 FOBSH| Put former active state           1 in new active state           1
 RANDOM_NUMBER_HOPPING_PROBA  0.73158312779136259     
 FOBSH| ACTIVE STATE =            1

 ENERGY| Total FORCE_EVAL ( MIXED ) energy (a.u.):             4.258189040756454

 FOBSH| *** WARNING: Projection to avoid spurious transfer get lambda =   0.99563105381025530      ***
 FOBSH| CASE1: no hop and no trivial crossing
 ENTER integrator.F
 STEP NUMBER                  =           19
 CPU TIME [s]                 =    9.2857680001543486E-003   1.2359524315797898E-002

 *******************************************************************************
 ENSEMBLE TYPE                =                                              NVE
 STEP NUMBER                  =                                               19
 TIME [fs]                    =                                         1.900000
 CONSERVED QUANTITY [hartree] =                               0.971160592987E+01

                                              INSTANTANEOUS             AVERAGES
 CPU TIME [s]                 =                        0.01                 0.01
 ENERGY DRIFT PER ATOM [K]    =          0.882224713684E+02   0.314839258223E+02
 POTENTIAL ENERGY[hartree]    =          0.425818904076E+01   0.651532358994E+01
 KINETIC ENERGY [hartree]     =          0.545341688911E+01   0.289165338844E+01
 TEMPERATURE [K]              =                     677.306              359.139
 *******************************************************************************

 FOBSH| Put former active state           1 in new active state           1
 RANDOM_NUMBER_HOPPING_PROBA  0.21590178387881515     
 FOBSH| ACTIVE STATE =            1

 ENERGY| Total FORCE_EVAL ( MIXED ) energy (a.u.):             3.936184913563487

 FOBSH| *** WARNING: Projection to avoid spurious transfer get lambda =   0.99505015492774140      ***
 FOBSH| CASE1: no hop and no trivial crossing
 ENTER integrator.F
 STEP NUMBER                  =           20
 CPU TIME [s]                 =    9.3511919994853088E-003   1.2209107699982270E-002

 *******************************************************************************
 ENSEMBLE TYPE                =                                              NVE
 STEP NUMBER                  =                                               20
 TIME [fs]                    =                                         2.000000
 CONSERVED QUANTITY [hartree] =                               0.976296778475E+01

                                              INSTANTANEOUS             AVERAGES
 CPU TIME [s]                 =                        0.01                 0.01
 ENERGY DRIFT PER ATOM [K]    =          0.977854263450E+02   0.347990008484E+02
 POTENTIAL ENERGY[hartree]    =          0.393618491356E+01   0.638636665613E+01
 KINETIC ENERGY [hartree]     =          0.582678287118E+01   0.303840986257E+01
 TEMPERATURE [K]              =                     723.678              377.366
 *******************************************************************************

 FOBSH| Put former active state           1 in new active state           1
 RANDOM_NUMBER_HOPPING_PROBA  0.64071458398099845     
 FOBSH| ACTIVE STATE =            1

 ENERGY| Total FORCE_EVAL ( MIXED ) energy (a.u.):             3.627256810012545

 FOBSH| CASE1: no hop and no trivial crossing
 ENTER integrator.F
 STEP NUMBER                  =           21
 CPU TIME [s]                 =    1.0686569999961648E-002   1.2136605904743192E-002

 *******************************************************************************
 ENSEMBLE TYPE                =                                              NVE
 STEP NUMBER                  =                                               21
 TIME [fs]                    =                                         2.100000
 CONSERVED QUANTITY [hartree] =                               0.981900987251E+01

                                              INSTANTANEOUS             AVERAGES
 CPU TIME [s]                 =                        0.01                 0.01
 ENERGY DRIFT PER ATOM [K]    =          0.108219783970E+03   0.382952286161E+02
 POTENTIAL ENERGY[hartree]    =          0.362725681001E+01   0.625498047298E+01
 KINETIC ENERGY [hartree]     =          0.619175306250E+01   0.318856906257E+01
 TEMPERATURE [K]              =                     769.006              396.015
 *******************************************************************************

 FOBSH| Put former active state           1 in new active state           1
 RANDOM_NUMBER_HOPPING_PROBA  0.52111213360711095     
 FOBSH| ACTIVE STATE =            1

 ENERGY| Total FORCE_EVAL ( MIXED ) energy (a.u.):             3.334515055181805

 FOBSH| *** WARNING: Projection to avoid spurious transfer get lambda =    1.0048111846493624      ***
 FOBSH| CASE1: no hop and no trivial crossing
 ENTER integrator.F
 STEP NUMBER                  =           22
 CPU TIME [s]                 =    9.4036079999568756E-003   1.2012378727252904E-002

 *******************************************************************************
 ENSEMBLE TYPE                =                                              NVE
 STEP NUMBER                  =                                               22
 TIME [fs]                    =                                         2.200000
 CONSERVED QUANTITY [hartree] =                               0.987777205543E+01

                                              INSTANTANEOUS             AVERAGES
 CPU TIME [s]                 =                        0.01                 0.01
 ENERGY DRIFT PER ATOM [K]    =          0.119160590350E+03   0.419709268768E+02
 POTENTIAL ENERGY[hartree]    =          0.333451505518E+01   0.612223204490E+01
 KINETIC ENERGY [hartree]     =          0.654325700025E+01   0.334105487792E+01
 TEMPERATURE [K]              =                     812.663              414.954
 *******************************************************************************

 FOBSH| Put former active state           1 in new active state           1
 RANDOM_NUMBER_HOPPING_PROBA  0.99023651703474946     
 FOBSH| ACTIVE STATE =            1

 ENERGY| Total FORCE_EVAL ( MIXED ) energy (a.u.):             3.061959199491158

 FOBSH| *** WARNING: Projection to avoid spurious transfer get lambda =    1.0082670956645809      ***
 FOBSH| CASE1: no hop and no trivial crossing
 ENTER integrator.F
 STEP NUMBER                  =           23
 CPU TIME [s]                 =    9.3584260002899100E-003   1.1896989478254513E-002

 *******************************************************************************
 ENSEMBLE TYPE                =                                              NVE
 STEP NUMBER                  =                                               23
 TIME [fs]                    =                                         2.300000
 CONSERVED QUANTITY [hartree] =                               0.993922998409E+01

                                              INSTANTANEOUS             AVERAGES
 CPU TIME [s]                 =                        0.01                 0.01
 ENERGY DRIFT PER ATOM [K]    =          0.130603311920E+03   0.458245088352E+02
 POTENTIAL ENERGY[hartree]    =          0.306195919949E+01   0.598917670379E+01
 KINETIC ENERGY [hartree]     =          0.687727078460E+01   0.349480339560E+01
 TEMPERATURE [K]              =                     854.147              434.049
 *******************************************************************************

 FOBSH| Put former active state           1 in new active state           1
 RANDOM_NUMBER_HOPPING_PROBA  0.44679221835284999     
 FOBSH| ACTIVE STATE =            1

 ENERGY| Total FORCE_EVAL ( MIXED ) energy (a.u.):             2.813303182411261

 FOBSH| *** WARNING: Projection to avoid spurious transfer get lambda =    1.0102764644466216      ***
 FOBSH| CASE1: no hop and no trivial crossing
 ENTER integrator.F
 STEP NUMBER                  =           24
 CPU TIME [s]                 =    9.3231299997569295E-003   1.1789745333317114E-002

 *******************************************************************************
 ENSEMBLE TYPE                =                                              NVE
 STEP NUMBER                  =                                               24
 TIME [fs]                    =                                         2.400000
 CONSERVED QUANTITY [hartree] =                               0.100033575335E+02

                                              INSTANTANEOUS             AVERAGES
 CPU TIME [s]                 =                        0.01                 0.01
 ENERGY DRIFT PER ATOM [K]    =          0.142543084520E+03   0.498544494887E+02
 POTENTIAL ENERGY[hartree]    =          0.281330318241E+01   0.585684864040E+01
 KINETIC ENERGY [hartree]     =          0.719005435106E+01   0.364877218541E+01
 TEMPERATURE [K]              =                     892.994              453.172
 *******************************************************************************

 FOBSH| Put former active state           1 in new active state           1
 RANDOM_NUMBER_HOPPING_PROBA  0.72233356424732642     
 FOBSH| ACTIVE STATE =            1

 ENERGY| Total FORCE_EVAL ( MIXED ) energy (a.u.):             2.593137368238117

 FOBSH| *** WARNING: Projection to avoid spurious transfer get lambda =    1.0151133579494369      ***
 FOBSH| CASE1: no hop and no trivial crossing
 ENTER integrator.F
 STEP NUMBER                  =           25
 CPU TIME [s]                 =    9.2428630005088053E-003   1.1687870040004782E-002

 *******************************************************************************
 ENSEMBLE TYPE                =                                              NVE
 STEP NUMBER                  =                                               25
 TIME [fs]                    =                                         2.500000
 CONSERVED QUANTITY [hartree] =                               0.100703117908E+02

                                              INSTANTANEOUS             AVERAGES
 CPU TIME [s]                 =                        0.01                 0.01
 ENERGY DRIFT PER ATOM [K]    =          0.155009155884E+03   0.540606377445E+02
 POTENTIAL ENERGY[hartree]    =          0.259313736824E+01   0.572630018951E+01
 KINETIC ENERGY [hartree]     =          0.747717442256E+01   0.380190827490E+01
 TEMPERATURE [K]              =                     928.654              472.191
 *******************************************************************************

 FOBSH| Put former active state           1 in new active state           1
 RANDOM_NUMBER_HOPPING_PROBA  0.41255905567954382     
 FOBSH| ACTIVE STATE =            1

 ENERGY| Total FORCE_EVAL ( MIXED ) energy (a.u.):             2.402044139283882

 FOBSH| *** WARNING: Projection to avoid spurious transfer get lambda =    1.0139178900547001      ***
 FOBSH| CASE1: no hop and no trivial crossing
 ENTER integrator.F
 STEP NUMBER                  =           26
 CPU TIME [s]                 =    9.2338799995559384E-003   1.1593485807679826E-002

 *******************************************************************************
 ENSEMBLE TYPE                =                                              NVE
 STEP NUMBER                  =                                               26
 TIME [fs]                    =                                         2.600000
 CONSERVED QUANTITY [hartree] =                               0.101375448455E+02

                                              INSTANTANEOUS             AVERAGES
 CPU TIME [s]                 =                        0.01                 0.01
 ENERGY DRIFT PER ATOM [K]    =          0.167527135943E+03   0.584247338291E+02
 POTENTIAL ENERGY[hartree]    =          0.240204413928E+01   0.559844418758E+01
 KINETIC ENERGY [hartree]     =          0.773550070624E+01   0.395320029149E+01
 TEMPERATURE [K]              =                     960.737              490.981
 *******************************************************************************

 FOBSH| Put former active state           1 in new active state           1
 RANDOM_NUMBER_HOPPING_PROBA  0.34090377784054399     
 FOBSH| ACTIVE STATE =            1

 ENERGY| Total FORCE_EVAL ( MIXED ) energy (a.u.):             2.243806948214073

 FOBSH| *** WARNING: Projection to avoid spurious transfer get lambda =    1.0110242171432207      ***
 FOBSH| CASE1: no hop and no trivial crossing
 ENTER integrator.F
 STEP NUMBER                  =           27
 CPU TIME [s]                 =    9.1179450000709039E-003   1.1501799111101718E-002

 *******************************************************************************
 ENSEMBLE TYPE                =                                              NVE
 STEP NUMBER                  =                                               27
 TIME [fs]                    =                                         2.700000
 CONSERVED QUANTITY [hartree] =                               0.102072155241E+02

                                              INSTANTANEOUS             AVERAGES
 CPU TIME [s]                 =                        0.01                 0.01
 ENERGY DRIFT PER ATOM [K]    =          0.180498972036E+03   0.629460019108E+02
 POTENTIAL ENERGY[hartree]    =          0.224380694821E+01   0.547419836390E+01
 KINETIC ENERGY [hartree]     =          0.796340857593E+01   0.410172652425E+01
 TEMPERATURE [K]              =                     989.043              509.428
 *******************************************************************************

 FOBSH| Put former active state           1 in new active state           1
 RANDOM_NUMBER_HOPPING_PROBA  0.27677776794176917     
 FOBSH| ACTIVE STATE =            1

 ENERGY| Total FORCE_EVAL ( MIXED ) energy (a.u.):             2.120567678826187

 FOBSH| *** WARNING: Projection to avoid spurious transfer get lambda =    1.0068589056367014      ***
 FOBSH| CASE1: no hop and no trivial crossing
 ENTER integrator.F
 STEP NUMBER                  =           28
 CPU TIME [s]                 =    9.2500420005308115E-003   1.1421379214295613E-002

 *******************************************************************************
 ENSEMBLE TYPE                =                                              NVE
 STEP NUMBER                  =                                               28
 TIME [fs]                    =                                         2.800000
 CONSERVED QUANTITY [hartree] =                               0.102792906274E+02

                                              INSTANTANEOUS             AVERAGES
 CPU TIME [s]                 =                        0.01                 0.01
 ENERGY DRIFT PER ATOM [K]    =          0.193918482857E+03   0.676235905160E+02
 POTENTIAL ENERGY[hartree]    =          0.212056767883E+01   0.535442583943E+01
 KINETIC ENERGY [hartree]     =          0.815872294858E+01   0.424661925369E+01
 TEMPERATURE [K]              =                    1013.301              527.424
 *******************************************************************************

 FOBSH| Put former active state           1 in new active state           1
 RANDOM_NUMBER_HOPPING_PROBA  0.98383587380821402     
 FOBSH| ACTIVE STATE =            1

 ENERGY| Total FORCE_EVAL ( MIXED ) energy (a.u.):             2.033997635019553

 FOBSH| *** WARNING: Projection to avoid spurious transfer get lambda =    1.0018919048560322      ***
 FOBSH| CASE1: no hop and no trivial crossing
 ENTER integrator.F
 STEP NUMBER                  =           29
 CPU TIME [s]                 =    9.0975509992858861E-003   1.1341247206881483E-002

 *******************************************************************************
 ENSEMBLE TYPE                =                                              NVE
 STEP NUMBER                  =                                               29
 TIME [fs]                    =                                         2.900000
 CONSERVED QUANTITY [hartree] =                               0.103537351860E+02

                                              INSTANTANEOUS             AVERAGES
 CPU TIME [s]                 =                        0.01                 0.01
 ENERGY DRIFT PER ATOM [K]    =          0.207779157557E+03   0.724565411037E+02
 POTENTIAL ENERGY[hartree]    =          0.203399763502E+01   0.523992831514E+01
 KINETIC ENERGY [hartree]     =          0.831973755102E+01   0.438707160877E+01
 TEMPERATURE [K]              =                    1033.299              544.868
 *******************************************************************************

 FOBSH| Put former active state           1 in new active state           1
 RANDOM_NUMBER_HOPPING_PROBA   3.3129242921919225E-002
 FOBSH| ACTIVE STATE =            1

 ENERGY| Total FORCE_EVAL ( MIXED ) energy (a.u.):             1.985277933305528

 FOBSH| *** WARNING: Projection to avoid spurious transfer get lambda =   0.99663268352610779      ***
 FOBSH| CASE1: no hop and no trivial crossing
 ENTER integrator.F
 STEP NUMBER                  =           30
 CPU TIME [s]                 =    9.1093320006621070E-003   1.1266850033340835E-002

 *******************************************************************************
 ENSEMBLE TYPE                =                                              NVE
 STEP NUMBER                  =                                               30
 TIME [fs]                    =                                         3.000000
 CONSERVED QUANTITY [hartree] =                               0.104305120884E+02

                                              INSTANTANEOUS             AVERAGES
 CPU TIME [s]                 =                        0.01                 0.01
 ENERGY DRIFT PER ATOM [K]    =          0.222074086398E+03   0.774437926135E+02
 POTENTIAL ENERGY[hartree]    =          0.198527793331E+01   0.513143996908E+01
 KINETIC ENERGY [hartree]     =          0.844523415511E+01   0.452234369364E+01
 TEMPERATURE [K]              =                    1048.885              561.668
 *******************************************************************************

 FOBSH| Put former active state           1 in new active state           1
 RANDOM_NUMBER_HOPPING_PROBA  0.70278426380342041     
 FOBSH| ACTIVE STATE =            1

 ENERGY| Total FORCE_EVAL ( MIXED ) energy (a.u.):             1.975087012599802

 FOBSH| *** WARNING: Projection to avoid spurious transfer get lambda =   0.99162420806568730      ***
 FOBSH| CASE1: no hop and no trivial crossing
 ENTER integrator.F
 STEP NUMBER                  =           31
 CPU TIME [s]                 =    9.0952659993490670E-003   1.1196798935470133E-002

 *******************************************************************************
 ENSEMBLE TYPE                =                                              NVE
 STEP NUMBER                  =                                               31
 TIME [fs]                    =                                         3.100000
 CONSERVED QUANTITY [hartree] =                               0.105095823895E+02

                                              INSTANTANEOUS             AVERAGES
 CPU TIME [s]                 =                        0.01                 0.01
 ENERGY DRIFT PER ATOM [K]    =          0.236796018291E+03   0.825841869902E+02
 POTENTIAL ENERGY[hartree]    =          0.197508701260E+01   0.502962213178E+01
 KINETIC ENERGY [hartree]     =          0.853449537691E+01   0.465176794149E+01
 TEMPERATURE [K]              =                    1059.971              577.743
 *******************************************************************************

 FOBSH| Put former active state           1 in new active state           1
 RANDOM_NUMBER_HOPPING_PROBA   5.8359604361187138E-002
 FOBSH| ACTIVE STATE =            1

 ENERGY| Total FORCE_EVAL ( MIXED ) energy (a.u.):             2.003594304922390

 FOBSH| *** WARNING: Projection to avoid spurious transfer get lambda =   0.98740586735100044      ***
 FOBSH| CASE1: no hop and no trivial crossing
 ENTER integrator.F
 STEP NUMBER                  =           32
 CPU TIME [s]                 =    9.2012929999327753E-003   1.1134439374984590E-002

 *******************************************************************************
 ENSEMBLE TYPE                =                                              NVE
 STEP NUMBER                  =                                               32
 TIME [fs]                    =                                         3.200000
 CONSERVED QUANTITY [hartree] =                               0.105909050746E+02

                                              INSTANTANEOUS             AVERAGES
 CPU TIME [s]                 =                        0.01                 0.01
 ENERGY DRIFT PER ATOM [K]    =          0.251937316790E+03   0.878764722964E+02
 POTENTIAL ENERGY[hartree]    =          0.200359430492E+01   0.493505876219E+01
 KINETIC ENERGY [hartree]     =          0.858731076969E+01   0.477475365487E+01
 TEMPERATURE [K]              =                    1066.531              593.017
 *******************************************************************************

 FOBSH| Put former active state           1 in new active state           1
 RANDOM_NUMBER_HOPPING_PROBA  0.46498143945730747     
 FOBSH| ACTIVE STATE =            1

 ENERGY| Total FORCE_EVAL ( MIXED ) energy (a.u.):             2.070461117005551

 FOBSH| *** WARNING: Projection to avoid spurious transfer get lambda =   0.98443840130710925      ***
 FOBSH| CASE1: no hop and no trivial crossing
 ENTER integrator.F
 STEP NUMBER                  =           33
 CPU TIME [s]                 =    8.9424360003249603E-003   1.1068015030297935E-002

 *******************************************************************************
 ENSEMBLE TYPE                =                                              NVE
 STEP NUMBER                  =                                               33
 TIME [fs]                    =                                         3.300000
 CONSERVED QUANTITY [hartree] =                               0.106744371629E+02

                                              INSTANTANEOUS             AVERAGES
 CPU TIME [s]                 =                        0.01                 0.01
 ENERGY DRIFT PER ATOM [K]    =          0.267489979386E+03   0.933193058446E+02
 POTENTIAL ENERGY[hartree]    =          0.207046111701E+01   0.484825277294E+01
 KINETIC ENERGY [hartree]     =          0.860397604589E+01   0.489079069703E+01
 TEMPERATURE [K]              =                    1068.601              607.429
 *******************************************************************************

 FOBSH| Put former active state           1 in new active state           1
 RANDOM_NUMBER_HOPPING_PROBA  0.41692479344093175     
 FOBSH| ACTIVE STATE =            1

 ENERGY| Total FORCE_EVAL ( MIXED ) energy (a.u.):             2.174847739961968

 FOBSH| *** WARNING: Projection to avoid spurious transfer get lambda =    1.0067761231458270      ***
 FOBSH| CASE1: no hop and no trivial crossing
 ENTER integrator.F
 STEP NUMBER                  =           34
 CPU TIME [s]                 =    1.2843632000112848E-002   1.1120239058821903E-002

 *******************************************************************************
 ENSEMBLE TYPE                =                                              NVE
 STEP NUMBER                  =                                               34
 TIME [fs]                    =                                         3.400000
 CONSERVED QUANTITY [hartree] =                               0.107601336327E+02

                                              INSTANTANEOUS             AVERAGES
 CPU TIME [s]                 =                        0.01                 0.01
 ENERGY DRIFT PER ATOM [K]    =          0.283445623605E+03   0.989112563670E+02
 POTENTIAL ENERGY[hartree]    =          0.217484773996E+01   0.476962321315E+01
 KINETIC ENERGY [hartree]     =          0.858528589279E+01   0.499945232043E+01
 TEMPERATURE [K]              =                    1066.280              620.924
 *******************************************************************************

 FOBSH| Put former active state           1 in new active state           1
 RANDOM_NUMBER_HOPPING_PROBA  0.95542779162735236     
 FOBSH| ACTIVE STATE =            1

 ENERGY| Total FORCE_EVAL ( MIXED ) energy (a.u.):             2.315427633525448

 FOBSH| *** WARNING: Projection to avoid spurious transfer get lambda =    1.0099870229442101      ***
 FOBSH| CASE1: no hop and no trivial crossing
 ENTER integrator.F
 STEP NUMBER                  =           35
 CPU TIME [s]                 =    8.9244399996459833E-003   1.1057501942845447E-002

 *******************************************************************************
 ENSEMBLE TYPE                =                                              NVE
 STEP NUMBER                  =                                               35
 TIME [fs]                    =                                         3.500000
 CONSERVED QUANTITY [hartree] =                               0.108479475421E+02

                                              INSTANTANEOUS             AVERAGES
 CPU TIME [s]                 =                        0.01                 0.01
 ENERGY DRIFT PER ATOM [K]    =          0.299795509401E+03   0.104650806454E+03
 POTENTIAL ENERGY[hartree]    =          0.231542763353E+01   0.469950333944E+01
 KINETIC ENERGY [hartree]     =          0.853251990858E+01   0.510039710866E+01
 TEMPERATURE [K]              =                    1059.726              633.462
 *******************************************************************************

 FOBSH| Put former active state           1 in new active state           1
 RANDOM_NUMBER_HOPPING_PROBA  0.69612169074670227     
 FOBSH| ACTIVE STATE =            1

 ENERGY| Total FORCE_EVAL ( MIXED ) energy (a.u.):             2.490407616496152

 FOBSH| *** WARNING: Projection to avoid spurious transfer get lambda =    1.0119283547436571      ***
 FOBSH| CASE1: no hop and no trivial crossing
 ENTER integrator.F
 STEP NUMBER                  =           36
 CPU TIME [s]                 =    8.9357440001549548E-003   1.0998564222215153E-002

 *******************************************************************************
 ENSEMBLE TYPE                =                                              NVE
 STEP NUMBER                  =                                               36
 TIME [fs]                    =                                         3.600000
 CONSERVED QUANTITY [hartree] =                               0.109378298729E+02

                                              INSTANTANEOUS             AVERAGES
 CPU TIME [s]                 =                        0.01                 0.01
 ENERGY DRIFT PER ATOM [K]    =          0.316530510211E+03   0.110536353780E+03
 POTENTIAL ENERGY[hartree]    =          0.249040761650E+01   0.463813956936E+01
 KINETIC ENERGY [hartree]     =          0.844742225645E+01   0.519337002943E+01
 TEMPERATURE [K]              =                    1049.157              645.009
 *******************************************************************************

 FOBSH| Put former active state           1 in new active state           1
 RANDOM_NUMBER_HOPPING_PROBA  0.81718961707675841     
 FOBSH| ACTIVE STATE =            1

 ENERGY| Total FORCE_EVAL ( MIXED ) energy (a.u.):             2.697554064219913

 FOBSH| *** WARNING: Projection to avoid spurious transfer get lambda =   0.99392306673850750      ***
 FOBSH| CASE1: no hop and no trivial crossing
 ENTER integrator.F
 STEP NUMBER                  =           37
 CPU TIME [s]                 =    8.9181390003432170E-003   1.0942336513515913E-002

 *******************************************************************************
 ENSEMBLE TYPE                =                                              NVE
 STEP NUMBER                  =                                               37
 TIME [fs]                    =                                         3.700000
 CONSERVED QUANTITY [hartree] =                               0.110297297478E+02

                                              INSTANTANEOUS             AVERAGES
 CPU TIME [s]                 =                        0.01                 0.01
 ENERGY DRIFT PER ATOM [K]    =          0.333641153259E+03   0.116566213226E+03
 POTENTIAL ENERGY[hartree]    =          0.269755406422E+01   0.458569131247E+01
 KINETIC ENERGY [hartree]     =          0.833217568353E+01   0.527820261468E+01
 TEMPERATURE [K]              =                    1034.844              655.545
 *******************************************************************************

 FOBSH| Put former active state           1 in new active state           1
 RANDOM_NUMBER_HOPPING_PROBA  0.11922992900941179     
 FOBSH| ACTIVE STATE =            1

 ENERGY| Total FORCE_EVAL ( MIXED ) energy (a.u.):             2.934224523974174

 FOBSH| *** WARNING: Projection to avoid spurious transfer get lambda =   0.99361728784141767      ***
 FOBSH| CASE1: no hop and no trivial crossing
 ENTER integrator.F
 STEP NUMBER                  =           38
 CPU TIME [s]                 =    9.0716509994308581E-003   1.0893107947355780E-002

 *******************************************************************************
 ENSEMBLE TYPE                =                                              NVE
 STEP NUMBER                  =                                               38
 TIME [fs]                    =                                         3.800000
 CONSERVED QUANTITY [hartree] =                               0.111235941514E+02

                                              INSTANTANEOUS             AVERAGES
 CPU TIME [s]                 =                        0.01                 0.01
 ENERGY DRIFT PER ATOM [K]    =          0.351117567768E+03   0.122738617293E+03
 POTENTIAL ENERGY[hartree]    =          0.293422452397E+01   0.454223166014E+01
 KINETIC ENERGY [hartree]     =          0.818936962741E+01   0.535481227291E+01
 TEMPERATURE [K]              =                    1017.107              665.060
 *******************************************************************************

 FOBSH| Put former active state           1 in new active state           1
 RANDOM_NUMBER_HOPPING_PROBA  0.92253367646760420     
 FOBSH| ACTIVE STATE =            1

 ENERGY| Total FORCE_EVAL ( MIXED ) energy (a.u.):             3.197404972632170

 FOBSH| *** WARNING: Projection to avoid spurious transfer get lambda =   0.99423895587851741      ***
 FOBSH| CASE1: no hop and no trivial crossing
 ENTER integrator.F
 STEP NUMBER                  =           39
 CPU TIME [s]                 =    8.9826500006893184E-003   1.0844121846159203E-002

 *******************************************************************************
 ENSEMBLE TYPE                =                                              NVE
 STEP NUMBER                  =                                               39
 TIME [fs]                    =                                         3.900000
 CONSERVED QUANTITY [hartree] =                               0.112193681874E+02

                                              INSTANTANEOUS             AVERAGES
 CPU TIME [s]                 =                        0.01                 0.01
 ENERGY DRIFT PER ATOM [K]    =          0.368949532677E+03   0.129051717687E+03
 POTENTIAL ENERGY[hartree]    =          0.319740497263E+01   0.450774892456E+01
 KINETIC ENERGY [hartree]     =          0.802196321472E+01   0.542320075860E+01
 TEMPERATURE [K]              =                     996.316              673.553
 *******************************************************************************

 FOBSH| Put former active state           1 in new active state           1
 RANDOM_NUMBER_HOPPING_PROBA  0.76883670220105782     
 FOBSH| ACTIVE STATE =            1

 ENERGY| Total FORCE_EVAL ( MIXED ) energy (a.u.):             3.483751292289362

 FOBSH| *** WARNING: Projection to avoid spurious transfer get lambda =   0.99565949071577708      ***
 FOBSH| CASE1: no hop and no trivial crossing
 ENTER integrator.F
 STEP NUMBER                  =           40
 CPU TIME [s]                 =    9.0163559998472920E-003   1.0798427700001407E-002

 *******************************************************************************
 ENSEMBLE TYPE                =                                              NVE
 STEP NUMBER                  =                                               40
 TIME [fs]                    =                                         4.000000
 CONSERVED QUANTITY [hartree] =                               0.113169949226E+02

                                              INSTANTANEOUS             AVERAGES
 CPU TIME [s]                 =                        0.01                 0.01
 ENERGY DRIFT PER ATOM [K]    =          0.387126447733E+03   0.135503585938E+03
 POTENTIAL ENERGY[hartree]    =          0.348375129229E+01   0.448214898375E+01
 KINETIC ENERGY [hartree]     =          0.783324363027E+01   0.548345183039E+01
 TEMPERATURE [K]              =                     972.877              681.036
 *******************************************************************************

 FOBSH| Put former active state           1 in new active state           1
 RANDOM_NUMBER_HOPPING_PROBA   4.8222606310225589E-002
 FOBSH| ACTIVE STATE =            1

 ENERGY| Total FORCE_EVAL ( MIXED ) energy (a.u.):             3.789635358224443

 FOBSH| *** WARNING: Projection to avoid spurious transfer get lambda =   0.99757047997076431      ***
 FOBSH| CASE1: no hop and no trivial crossing
 ENTER integrator.F
 STEP NUMBER                  =           41
 CPU TIME [s]                 =    1.0349098999540729E-002   1.0787468463404804E-002

 *******************************************************************************
 ENSEMBLE TYPE                =                                              NVE
 STEP NUMBER                  =                                               41
 TIME [fs]                    =                                         4.100000
 CONSERVED QUANTITY [hartree] =                               0.114164155077E+02

                                              INSTANTANEOUS             AVERAGES
 CPU TIME [s]                 =                        0.01                 0.01
 ENERGY DRIFT PER ATOM [K]    =          0.405637355912E+03   0.142092214474E+03
 POTENTIAL ENERGY[hartree]    =          0.378963535822E+01   0.446525840752E+01
 KINETIC ENERGY [hartree]     =          0.762678014949E+01   0.553572813086E+01
 TEMPERATURE [K]              =                     947.235              687.529
 *******************************************************************************

 FOBSH| Put former active state           1 in new active state           1
 RANDOM_NUMBER_HOPPING_PROBA  0.21691893230172293     
 FOBSH| ACTIVE STATE =            1

 ENERGY| Total FORCE_EVAL ( MIXED ) energy (a.u.):             4.111194306079565

 FOBSH| CASE1: no hop and no trivial crossing
 ENTER integrator.F
 STEP NUMBER                  =           42
 CPU TIME [s]                 =    9.2803249999633408E-003   1.0751584095227626E-002

 *******************************************************************************
 ENSEMBLE TYPE                =                                              NVE
 STEP NUMBER                  =                                               42
 TIME [fs]                    =                                         4.200000
 CONSERVED QUANTITY [hartree] =                               0.115175694036E+02

                                              INSTANTANEOUS             AVERAGES
 CPU TIME [s]                 =                        0.01                 0.01
 ENERGY DRIFT PER ATOM [K]    =          0.424470985541E+03   0.148815518547E+03
 POTENTIAL ENERGY[hartree]    =          0.411119430608E+01   0.445682830987E+01
 KINETIC ENERGY [hartree]     =          0.740637509750E+01   0.558026734435E+01
 TEMPERATURE [K]              =                     919.861              693.061
 *******************************************************************************

 FOBSH| Put former active state           1 in new active state           1
 RANDOM_NUMBER_HOPPING_PROBA  0.31617831223762805     
 FOBSH| ACTIVE STATE =            1

 ENERGY| Total FORCE_EVAL ( MIXED ) energy (a.u.):             4.444382730976690

 FOBSH| *** WARNING: Projection to avoid spurious transfer get lambda =    1.0015387387592276      ***
 FOBSH| CASE1: no hop and no trivial crossing
 ENTER integrator.F
 STEP NUMBER                  =           43
 CPU TIME [s]                 =    9.1958390003128443E-003   1.0715403976741237E-002

 *******************************************************************************
 ENSEMBLE TYPE                =                                              NVE
 STEP NUMBER                  =                                               43
 TIME [fs]                    =                                         4.300000
 CONSERVED QUANTITY [hartree] =                               0.116203946384E+02

                                              INSTANTANEOUS             AVERAGES
 CPU TIME [s]                 =                        0.01                 0.01
 ENERGY DRIFT PER ATOM [K]    =          0.443615798235E+03   0.155671339005E+03
 POTENTIAL ENERGY[hartree]    =          0.444438273098E+01   0.445653887780E+01
 KINETIC ENERGY [hartree]     =          0.717601190745E+01   0.561737768302E+01
 TEMPERATURE [K]              =                     891.250              697.670
 *******************************************************************************

 FOBSH| Put former active state           1 in new active state           1
 RANDOM_NUMBER_HOPPING_PROBA  0.25311632609185669     
 FOBSH| ACTIVE STATE =            1

 ENERGY| Total FORCE_EVAL ( MIXED ) energy (a.u.):             4.785027409538296

 FOBSH| *** WARNING: Projection to avoid spurious transfer get lambda =    1.0030979291763444      ***
 FOBSH| CASE1: no hop and no trivial crossing
 ENTER integrator.F
 STEP NUMBER                  =           44
 CPU TIME [s]                 =    9.2818080001961789E-003   1.0682822250001577E-002

 *******************************************************************************
 ENSEMBLE TYPE                =                                              NVE
 STEP NUMBER                  =                                               44
 TIME [fs]                    =                                         4.400000
 CONSERVED QUANTITY [hartree] =                               0.117248283113E+02

                                              INSTANTANEOUS             AVERAGES
 CPU TIME [s]                 =                        0.01                 0.01
 ENERGY DRIFT PER ATOM [K]    =          0.463060082592E+03   0.162657446814E+03
 POTENTIAL ENERGY[hartree]    =          0.478502740954E+01   0.446400452625E+01
 KINETIC ENERGY [hartree]     =          0.693980090172E+01   0.564743275618E+01
 TEMPERATURE [K]              =                     861.913              701.403
 *******************************************************************************

 FOBSH| Put former active state           1 in new active state           1
 RANDOM_NUMBER_HOPPING_PROBA  0.76725138341735311     
 FOBSH| ACTIVE STATE =            1

 ENERGY| Total FORCE_EVAL ( MIXED ) energy (a.u.):             5.128883329281345

 FOBSH| *** WARNING: Projection to avoid spurious transfer get lambda =    1.0041888041946918      ***
 FOBSH| CASE1: no hop and no trivial crossing
 ENTER integrator.F
 STEP NUMBER                  =           45
 CPU TIME [s]                 =    9.1161020000072313E-003   1.0648006244446147E-002

 *******************************************************************************
 ENSEMBLE TYPE                =                                              NVE
 STEP NUMBER                  =                                               45
 TIME [fs]                    =                                         4.500000
 CONSERVED QUANTITY [hartree] =                               0.118308071534E+02

                                              INSTANTANEOUS             AVERAGES
 CPU TIME [s]                 =                        0.01                 0.01
 ENERGY DRIFT PER ATOM [K]    =          0.482792058753E+03   0.169771549301E+03
 POTENTIAL ENERGY[hartree]    =          0.512888332928E+01   0.447877961076E+01
 KINETIC ENERGY [hartree]     =          0.670192382414E+01   0.567086589102E+01
 TEMPERATURE [K]              =                     832.369              704.313
 *******************************************************************************

 FOBSH| Put former active state           1 in new active state           1
 RANDOM_NUMBER_HOPPING_PROBA  0.42180098656905007     
 FOBSH| ACTIVE STATE =            1

 ENERGY| Total FORCE_EVAL ( MIXED ) energy (a.u.):             5.471690919367203

 FOBSH| *** WARNING: Projection to avoid spurious transfer get lambda =    1.0047696265626855      ***
 FOBSH| CASE1: no hop and no trivial crossing
 ENTER integrator.F
 STEP NUMBER                  =           46
 CPU TIME [s]                 =    9.1128109997953288E-003   1.0614632434779826E-002

 *******************************************************************************
 ENSEMBLE TYPE                =                                              NVE
 STEP NUMBER                  =                                               46
 TIME [fs]                    =                                         4.600000
 CONSERVED QUANTITY [hartree] =                               0.119382682380E+02

                                              INSTANTANEOUS             AVERAGES
 CPU TIME [s]                 =                        0.01                 0.01
 ENERGY DRIFT PER ATOM [K]    =          0.502800010492E+03   0.177011298458E+03
 POTENTIAL ENERGY[hartree]    =          0.547169091937E+01   0.450036463921E+01
 KINETIC ENERGY [hartree]     =          0.646657731864E+01   0.568816396553E+01
 TEMPERATURE [K]              =                     803.139              706.461
 *******************************************************************************

 FOBSH| Put former active state           1 in new active state           1
 RANDOM_NUMBER_HOPPING_PROBA  0.14315497683739178     
 FOBSH| ACTIVE STATE =            1

 ENERGY| Total FORCE_EVAL ( MIXED ) energy (a.u.):             5.809232879912479

 FOBSH| *** WARNING: Projection to avoid spurious transfer get lambda =    1.0048550056276644      ***
 FOBSH| CASE1: no hop and no trivial crossing
 ENTER integrator.F
 STEP NUMBER                  =           47
 CPU TIME [s]                 =    9.1856979997828603E-003   1.0584229574460740E-002

 *******************************************************************************
 ENSEMBLE TYPE                =                                              NVE
 STEP NUMBER                  =                                               47
 TIME [fs]                    =                                         4.700000
 CONSERVED QUANTITY [hartree] =                               0.120471494677E+02

                                              INSTANTANEOUS             AVERAGES
 CPU TIME [s]                 =                        0.01                 0.01
 ENERGY DRIFT PER ATOM [K]    =          0.523072376032E+03   0.184374300108E+03
 POTENTIAL ENERGY[hartree]    =          0.580923287991E+01   0.452821289965E+01
 KINETIC ENERGY [hartree]     =          0.623791658775E+01   0.569986082984E+01
 TEMPERATURE [K]              =                     774.740              707.914
 *******************************************************************************

 FOBSH| Put former active state           1 in new active state           1
 RANDOM_NUMBER_HOPPING_PROBA  0.48689183669013492     
 FOBSH| ACTIVE STATE =            1

 ENERGY| Total FORCE_EVAL ( MIXED ) energy (a.u.):             6.137390305777206

 FOBSH| *** WARNING: Projection to avoid spurious transfer get lambda =    1.0044991412414643      ***
 FOBSH| CASE1: no hop and no trivial crossing
 ENTER integrator.F
 STEP NUMBER                  =           48
[...]
 ENERGY DRIFT PER ATOM [K]    =          0.139357910754E+04   0.531804982788E+03
 POTENTIAL ENERGY[hartree]    =          0.438074150636E+01   0.541562770577E+01
 KINETIC ENERGY [hartree]     =          0.123418289504E+02   0.667844828676E+01
 TEMPERATURE [K]              =                    1532.836              829.453
 *******************************************************************************

 FOBSH| Put former active state           1 in new active state           1
 RANDOM_NUMBER_HOPPING_PROBA  0.85111152800526424     
 FOBSH| ACTIVE STATE =            1

 ENERGY| Total FORCE_EVAL ( MIXED ) energy (a.u.):             4.465868265572549

 FOBSH| CASE1: no hop and no trivial crossing
 ENTER integrator.F
 STEP NUMBER                  =           86
 CPU TIME [s]                 =    9.0958250002586283E-003   1.0526466441861816E-002

 *******************************************************************************
 ENSEMBLE TYPE                =                                              NVE
 STEP NUMBER                  =                                               86
 TIME [fs]                    =                                         8.600000
 CONSERVED QUANTITY [hartree] =                               0.168451115903E+02

                                              INSTANTANEOUS             AVERAGES
 CPU TIME [s]                 =                        0.01                 0.01
 ENERGY DRIFT PER ATOM [K]    =          0.141639478165E+04   0.542090910682E+03
 POTENTIAL ENERGY[hartree]    =          0.446586826557E+01   0.540458399135E+01
 KINETIC ENERGY [hartree]     =          0.123792433248E+02   0.674473660115E+01
 TEMPERATURE [K]              =                    1537.483              837.686
 *******************************************************************************

 FOBSH| Put former active state           1 in new active state           1
 RANDOM_NUMBER_HOPPING_PROBA  0.74125892719762798     
 FOBSH| ACTIVE STATE =            1

 ENERGY| Total FORCE_EVAL ( MIXED ) energy (a.u.):             4.588280303002898

 FOBSH| *** WARNING: Projection to avoid spurious transfer get lambda =    1.0013547599128292      ***
 FOBSH| CASE1: no hop and no trivial crossing
 ENTER integrator.F
 STEP NUMBER                  =           87
 CPU TIME [s]                 =    9.0621760000431095E-003   1.0509635517243210E-002

 *******************************************************************************
 ENSEMBLE TYPE                =                                              NVE
 STEP NUMBER                  =                                               87
 TIME [fs]                    =                                         8.700000
 CONSERVED QUANTITY [hartree] =                               0.169667829967E+02

                                              INSTANTANEOUS             AVERAGES
 CPU TIME [s]                 =                        0.01                 0.01
 ENERGY DRIFT PER ATOM [K]    =          0.143904852312E+04   0.552400768296E+03
 POTENTIAL ENERGY[hartree]    =          0.458828030300E+01   0.539520119033E+01
 KINETIC ENERGY [hartree]     =          0.123785026937E+02   0.680949253325E+01
 TEMPERATURE [K]              =                    1537.391              845.729
 *******************************************************************************

 FOBSH| Put former active state           1 in new active state           1
 RANDOM_NUMBER_HOPPING_PROBA  0.81156946621054071     
 FOBSH| ACTIVE STATE =            1

 ENERGY| Total FORCE_EVAL ( MIXED ) energy (a.u.):             4.747315104997714

 FOBSH| *** WARNING: Projection to avoid spurious transfer get lambda =    1.0016859048103814      ***
 FOBSH| CASE1: no hop and no trivial crossing
 ENTER integrator.F
 STEP NUMBER                  =           88
 CPU TIME [s]                 =    9.0323909998915042E-003   1.0492848647727851E-002

 *******************************************************************************
 ENSEMBLE TYPE                =                                              NVE
 STEP NUMBER                  =                                               88
 TIME [fs]                    =                                         8.800000
 CONSERVED QUANTITY [hartree] =                               0.170874938175E+02

                                              INSTANTANEOUS             AVERAGES
 CPU TIME [s]                 =                        0.01                 0.01
 ENERGY DRIFT PER ATOM [K]    =          0.146152341518E+04   0.562731707465E+03
 POTENTIAL ENERGY[hartree]    =          0.474731510500E+01   0.538783884845E+01
 KINETIC ENERGY [hartree]     =          0.123401787125E+02   0.687234123984E+01
 TEMPERATURE [K]              =                    1532.631              853.534
 *******************************************************************************

 FOBSH| Put former active state           1 in new active state           1
 RANDOM_NUMBER_HOPPING_PROBA  0.98161870059014533     
 FOBSH| ACTIVE STATE =            1

 ENERGY| Total FORCE_EVAL ( MIXED ) energy (a.u.):             4.941687001377384

 FOBSH| *** WARNING: Projection to avoid spurious transfer get lambda =    1.0018120038928096      ***
 FOBSH| CASE1: no hop and no trivial crossing
 ENTER integrator.F
 STEP NUMBER                  =           89
 CPU TIME [s]                 =    9.0453719994911808E-003   1.0476584865163395E-002

 *******************************************************************************
 ENSEMBLE TYPE                =                                              NVE
 STEP NUMBER                  =                                               89
 TIME [fs]                    =                                         8.900000
 CONSERVED QUANTITY [hartree] =                               0.172070036019E+02

                                              INSTANTANEOUS             AVERAGES
 CPU TIME [s]                 =                        0.01                 0.01
 ENERGY DRIFT PER ATOM [K]    =          0.148377468881E+04   0.573080505008E+03
 POTENTIAL ENERGY[hartree]    =          0.494168700138E+01   0.538282590635E+01
 KINETIC ENERGY [hartree]     =          0.122653166005E+02   0.693293646861E+01
 TEMPERATURE [K]              =                    1523.334              861.060
 *******************************************************************************

 FOBSH| Put former active state           1 in new active state           1
 RANDOM_NUMBER_HOPPING_PROBA  0.83694269673062516     
 FOBSH| ACTIVE STATE =            1

 ENERGY| Total FORCE_EVAL ( MIXED ) energy (a.u.):             5.124507129870860

 FOBSH| *** WARNING: Projection to avoid spurious transfer get lambda =    1.0017591410887254      ***
 FOBSH| CASE1: no hop and no trivial crossing
 ENTER integrator.F
 STEP NUMBER                  =           90
 CPU TIME [s]                 =    9.1624290007530362E-003   1.0461983133336614E-002

 *******************************************************************************
 ENSEMBLE TYPE                =                                              NVE
 STEP NUMBER                  =                                               90
 TIME [fs]                    =                                         9.000000
 CONSERVED QUANTITY [hartree] =                               0.172819387804E+02

                                              INSTANTANEOUS             AVERAGES
 CPU TIME [s]                 =                        0.01                 0.01
 ENERGY DRIFT PER ATOM [K]    =          0.149772671097E+04   0.583354351741E+03
 POTENTIAL ENERGY[hartree]    =          0.512450712987E+01   0.537995569772E+01
 KINETIC ENERGY [hartree]     =          0.121574316505E+02   0.699098641507E+01
 TEMPERATURE [K]              =                    1509.935              868.270
 *******************************************************************************

 FOBSH| Put former active state           1 in new active state           1
 RANDOM_NUMBER_HOPPING_PROBA  0.72869234242662961     
 FOBSH| ACTIVE STATE =            1

 ENERGY| Total FORCE_EVAL ( MIXED ) energy (a.u.):             5.332777933790370

 FOBSH| *** WARNING: Projection to avoid spurious transfer get lambda =    1.0015618171296630      ***
 FOBSH| CASE1: no hop and no trivial crossing
 ENTER integrator.F
 STEP NUMBER                  =           91
 CPU TIME [s]                 =    9.0006139998877188E-003   1.0445924131870144E-002

 *******************************************************************************
 ENSEMBLE TYPE                =                                              NVE
 STEP NUMBER                  =                                               91
 TIME [fs]                    =                                         9.100000
 CONSERVED QUANTITY [hartree] =                               0.173534420627E+02

                                              INSTANTANEOUS             AVERAGES
 CPU TIME [s]                 =                        0.01                 0.01
 ENERGY DRIFT PER ATOM [K]    =          0.151103975567E+04   0.593548696839E+03
 POTENTIAL ENERGY[hartree]    =          0.533277793379E+01   0.537943726076E+01
 KINETIC ENERGY [hartree]     =          0.120206641289E+02   0.704625759874E+01
 TEMPERATURE [K]              =                    1492.948              875.135
 *******************************************************************************

 FOBSH| Put former active state           1 in new active state           1
 RANDOM_NUMBER_HOPPING_PROBA  0.15571633409452568     
 FOBSH| ACTIVE STATE =            1

 ENERGY| Total FORCE_EVAL ( MIXED ) energy (a.u.):             5.567245396956079

 FOBSH| *** WARNING: Projection to avoid spurious transfer get lambda =    1.0012583303794225      ***
 FOBSH| CASE1: no hop and no trivial crossing
 ENTER integrator.F
 STEP NUMBER                  =           92
 CPU TIME [s]                 =    9.1567800000120769E-003   1.0431911695654295E-002

 *******************************************************************************
 ENSEMBLE TYPE                =                                              NVE
 STEP NUMBER                  =                                               92
 TIME [fs]                    =                                         9.200000
 CONSERVED QUANTITY [hartree] =                               0.174249295178E+02

                                              INSTANTANEOUS             AVERAGES
 CPU TIME [s]                 =                        0.01                 0.01
 ENERGY DRIFT PER ATOM [K]    =          0.152434985353E+04   0.603666100717E+03
 POTENTIAL ENERGY[hartree]    =          0.556724539696E+01   0.538147865354E+01
 KINETIC ENERGY [hartree]     =          0.118576841209E+02   0.709855571311E+01
 TEMPERATURE [K]              =                    1472.706              881.630
 *******************************************************************************

 FOBSH| Put former active state           1 in new active state           1
 RANDOM_NUMBER_HOPPING_PROBA  0.24912306196466019     
 FOBSH| ACTIVE STATE =            1

 ENERGY| Total FORCE_EVAL ( MIXED ) energy (a.u.):             5.825199595982881

 FOBSH| CASE1: no hop and no trivial crossing
 ENTER integrator.F
 STEP NUMBER                  =           93
 CPU TIME [s]                 =    9.0504379995763884E-003   1.0417057139782490E-002

 *******************************************************************************
 ENSEMBLE TYPE                =                                              NVE
 STEP NUMBER                  =                                               93
 TIME [fs]                    =                                         9.300000
 CONSERVED QUANTITY [hartree] =                               0.174965660734E+02

                                              INSTANTANEOUS             AVERAGES
 CPU TIME [s]                 =                        0.01                 0.01
 ENERGY DRIFT PER ATOM [K]    =          0.153768771209E+04   0.613709343850E+03
 POTENTIAL ENERGY[hartree]    =          0.582519959598E+01   0.538624984647E+01
 KINETIC ENERGY [hartree]     =          0.116713664774E+02   0.714772572133E+01
 TEMPERATURE [K]              =                    1449.566              887.737
 *******************************************************************************

 FOBSH| Put former active state           1 in new active state           1
 RANDOM_NUMBER_HOPPING_PROBA  0.79757554267898978     
 FOBSH| ACTIVE STATE =            1

 ENERGY| Total FORCE_EVAL ( MIXED ) energy (a.u.):             6.103603684219937

 FOBSH| CASE1: no hop and no trivial crossing
 ENTER integrator.F
 STEP NUMBER                  =           94
 CPU TIME [s]                 =    9.6907799998007249E-003   1.0409330787229491E-002

 *******************************************************************************
 ENSEMBLE TYPE                =                                              NVE
 STEP NUMBER                  =                                               94
 TIME [fs]                    =                                         9.400000
 CONSERVED QUANTITY [hartree] =                               0.175685220610E+02

                                              INSTANTANEOUS             AVERAGES
 CPU TIME [s]                 =                        0.01                 0.01
 ENERGY DRIFT PER ATOM [K]    =          0.155108504502E+04   0.623681425777E+03
 POTENTIAL ENERGY[hartree]    =          0.610360368422E+01   0.539388127028E+01
 KINETIC ENERGY [hartree]     =          0.114649183768E+02   0.719365330277E+01
 TEMPERATURE [K]              =                    1423.925              893.441
 *******************************************************************************

 FOBSH| Put former active state           1 in new active state           1
 RANDOM_NUMBER_HOPPING_PROBA  0.86225731865258948     
 FOBSH| ACTIVE STATE =            1

 ENERGY| Total FORCE_EVAL ( MIXED ) energy (a.u.):             6.399130968022351

 FOBSH| CASE1: no hop and no trivial crossing
 ENTER integrator.F
 STEP NUMBER                  =           95
 CPU TIME [s]                 =    9.1922560004604748E-003   1.0396519473684553E-002

 *******************************************************************************
 ENSEMBLE TYPE                =                                              NVE
 STEP NUMBER                  =                                               95
 TIME [fs]                    =                                         9.500000
 CONSERVED QUANTITY [hartree] =                               0.176409709166E+02

                                              INSTANTANEOUS             AVERAGES
 CPU TIME [s]                 =                        0.01                 0.01
 ENERGY DRIFT PER ATOM [K]    =          0.156457414400E+04   0.633585559653E+03
 POTENTIAL ENERGY[hartree]    =          0.639913096802E+01   0.540446284604E+01
 KINETIC ENERGY [hartree]     =          0.112418399486E+02   0.723626579378E+01
 TEMPERATURE [K]              =                    1396.219              898.733
 *******************************************************************************

 FOBSH| Put former active state           1 in new active state           1
 RANDOM_NUMBER_HOPPING_PROBA  0.76464736998236116     
 FOBSH| ACTIVE STATE =            1

 ENERGY| Total FORCE_EVAL ( MIXED ) energy (a.u.):             6.708208531432996

 FOBSH| CASE1: no hop and no trivial crossing
 ENTER integrator.F
 STEP NUMBER                  =           96
 CPU TIME [s]                 =    9.1999520000172197E-003   1.0384055229167185E-002

 *******************************************************************************
 ENSEMBLE TYPE                =                                              NVE
 STEP NUMBER                  =                                               96
 TIME [fs]                    =                                         9.600000
 CONSERVED QUANTITY [hartree] =                               0.177140884143E+02

                                              INSTANTANEOUS             AVERAGES
 CPU TIME [s]                 =                        0.01                 0.01
 ENERGY DRIFT PER ATOM [K]    =          0.157818773603E+04   0.643425165657E+03
 POTENTIAL ENERGY[hartree]    =          0.670820853143E+01   0.541804353026E+01
 KINETIC ENERGY [hartree]     =          0.110058798829E+02   0.727553260721E+01
 TEMPERATURE [K]              =                    1366.914              903.610
 *******************************************************************************

 FOBSH| Put former active state           1 in new active state           1
 RANDOM_NUMBER_HOPPING_PROBA  0.94583643151772634     
 FOBSH| ACTIVE STATE =            1

 ENERGY| Total FORCE_EVAL ( MIXED ) energy (a.u.):             7.027056109039239

 FOBSH| CASE1: no hop and no trivial crossing
 ENTER integrator.F
 STEP NUMBER                  =           97
 CPU TIME [s]                 =    9.1808950000995537E-003   1.0371651515465456E-002

 *******************************************************************************
 ENSEMBLE TYPE                =                                              NVE
 STEP NUMBER                  =                                               97
 TIME [fs]                    =                                         9.700000
 CONSERVED QUANTITY [hartree] =                               0.177880480723E+02

                                              INSTANTANEOUS             AVERAGES
 CPU TIME [s]                 =                        0.01                 0.01
 ENERGY DRIFT PER ATOM [K]    =          0.159195812811E+04   0.653203855992E+03
 POTENTIAL ENERGY[hartree]    =          0.702705610904E+01   0.543463128881E+01
 KINETIC ENERGY [hartree]     =          0.107609919632E+02   0.731146517789E+01
 TEMPERATURE [K]              =                    1336.499              908.073
 *******************************************************************************

 FOBSH| Put former active state           1 in new active state           1
 RANDOM_NUMBER_HOPPING_PROBA  0.85528616744548158     
 FOBSH| ACTIVE STATE =            1

 ENERGY| Total FORCE_EVAL ( MIXED ) energy (a.u.):             7.351747877826758

 FOBSH| CASE1: no hop and no trivial crossing
 ENTER integrator.F
 STEP NUMBER                  =           98
 CPU TIME [s]                 =    9.1890459998467122E-003   1.0359584112244856E-002

 *******************************************************************************
 ENSEMBLE TYPE                =                                              NVE
 STEP NUMBER                  =                                               98
 TIME [fs]                    =                                         9.800000
 CONSERVED QUANTITY [hartree] =                               0.178630192690E+02

                                              INSTANTANEOUS             AVERAGES
 CPU TIME [s]                 =                        0.01                 0.01
 ENERGY DRIFT PER ATOM [K]    =          0.160591685645E+04   0.662925417221E+03
 POTENTIAL ENERGY[hartree]    =          0.735174787783E+01   0.545419370298E+01
 KINETIC ENERGY [hartree]     =          0.105112713912E+02   0.734411626170E+01
 TEMPERATURE [K]              =                    1305.484              912.128
 *******************************************************************************

 FOBSH| Put former active state           1 in new active state           1
 RANDOM_NUMBER_HOPPING_PROBA  0.20310459291696442     
 FOBSH| ACTIVE STATE =            1

 ENERGY| Total FORCE_EVAL ( MIXED ) energy (a.u.):             7.678245341887579

 FOBSH| CASE1: no hop and no trivial crossing
 ENTER integrator.F
 STEP NUMBER                  =           99
 CPU TIME [s]                 =    9.4603139996252139E-003   1.0350500575753749E-002
