 DBCSR| Multiplication driver                                               XSMM
 DBCSR| Multrec recursion limit                                              512
 DBCSR| Multiplication stack size                                           1000
 DBCSR| Maximum elements for images                                    UNLIMITED
 DBCSR| Randmat seed                                                    12341313
 DBCSR| Multiplication size stacks                                             3


  **** **** ******  **  PROGRAM STARTED AT               2021-04-29 14:23:29.620
 ***** ** ***  *** **   PROGRAM STARTED ON               bulstake.phys.ucl.ac.uk
 **    ****   ******    PROGRAM STARTED BY                             sgiannini
 ***** **    ** ** **   PROGRAM PROCESS ID                                 12987
  **** **  *******  **  PROGRAM STARTED IN /scratch/sgiannini/REG_TEST_MERGING/3
                                           7-071a0540f1_code_extension_V3_ADJ/ru
                                           n-fssh-LONG

 CP2K| version string:                    CP2K version 4.0 (Development Version)
 CP2K| source code revision number:                                  git:1080fc1
 CP2K| cp2kflags: libint fftw3 libxc quip smm_dnn smm libxsmm libderiv_max_am1=5
 CP2K|             libint_max_am=6
 CP2K| is freely available from                            https://www.cp2k.org/
 CP2K| Program compiled at                          Thu 29 Apr 10:11:08 BST 2021
 CP2K| Program compiled on                               bulstake.phys.ucl.ac.uk
 CP2K| Program compiled for                                         local_hetero
 CP2K| Data directory path           /scratch/sgiannini/flavoured-cptk/cp2k/data
 CP2K| Input file name                                                   run.inp

 GLOBAL| Force Environment number                                              1
 GLOBAL| Basis set file name                                           POTENTIAL
 GLOBAL| MM Potential file name                                     MM_POTENTIAL
 GLOBAL| Coordinate file name                                       pos-init.xyz
 GLOBAL| Force Environment number                                              2
 GLOBAL| Basis set file name                                           POTENTIAL
 GLOBAL| MM Potential file name                                     MM_POTENTIAL
 GLOBAL| Coordinate file name                                       pos-init.xyz
 GLOBAL| Force Environment number                                              3
 GLOBAL| Basis set file name                                           POTENTIAL
 GLOBAL| MM Potential file name                                     MM_POTENTIAL
 GLOBAL| Coordinate file name                                       pos-init.xyz
 GLOBAL| Method name                                                        CP2K
 GLOBAL| Project name                                                        run
 GLOBAL| Preferred FFT library                                             FFTW3
 GLOBAL| Preferred diagonalization lib.                                       SL
 GLOBAL| Run type                                                             MD
 GLOBAL| All-to-all communication in single precision                          F
 GLOBAL| FFTs using library dependent lengths                                  F
 GLOBAL| Global print level                                                  LOW
 GLOBAL| Total number of message passing processes                             1
 GLOBAL| Number of threads for this process                                    1
 GLOBAL| This output is from process                                           0
 GLOBAL| CPU model name :  Intel(R) Xeon(R) CPU E5-2687W v4 @ 3.00GHz

 MEMORY| system memory details [Kb]
 MEMORY|                        rank 0           min           max       average
 MEMORY| MemTotal             65894336      65894336      65894336      65894336
 MEMORY| MemFree               6878064       6878064       6878064       6878064
 MEMORY| Buffers                  8744          8744          8744          8744
 MEMORY| Cached               40779116      40779116      40779116      40779116
 MEMORY| Slab                  3236700       3236700       3236700       3236700
 MEMORY| SReclaimable          2479316       2479316       2479316       2479316
 MEMORY| MemLikelyFree        50145240      50145240      50145240      50145240

 TOTAL NUMBER OF FORCE EVALS           3
 NOTE:n_subforce_eval           2
 DECOMP =  T
 DECOMP =  T

 MD| Molecular Dynamics Protocol 
 MD| Ensemble Type                                                           NVE
 MD| Number of Time Steps                                                   1000
 MD| Time Step [fs]                                                         0.10
 MD| Temperature [K]                                                      400.00
 MD| Temperature tolerance [K]                                              0.00
 MD| Print MD information every                                        1 step(s)
 MD| File type     Print frequency[steps]                             File names
 MD| Coordinates          200                                      run-pos-1.xyz
 MD| Velocities             1                                      run-vel-1.xyz
 MD| Energies               1                                         run-1.ener
 MD| Dump                 200                                      run-1.restart

 ROT| Rotational Analysis Info 
 ROT| Principal axes and moments of inertia in atomic units:
 ROT|                                1                 2                 3
 ROT| EIGENVALUES            0.319196005E+10   0.583971964E+10   0.882037602E+10
 ROT|      X                     0.997631408       0.066105605       0.019016393
 ROT|      Y                     0.066118536      -0.997811774      -0.000051363
 ROT|      Z                    -0.018971385      -0.001308578       0.999819171
 ROT| Numer of Rotovibrational vectors:     6

 Calculation of degrees of freedom
                                                      Number of atoms:       900
                                 Number of Intramolecular constraints:         0
                                 Number of Intermolecular constraints:         0
                                  Invariants(translation + rotations):         3
                                                   Degrees of freedom:      2697


 Restraints Information
                                  Number of Intramolecular restraints:         0
                                  Number of Intermolecular restraints:         0

 *** WARNING in motion/thermostat/thermostat_methods.F:280 :: Thermostat ***
 *** for Particles has been defined but the ensemble provided does not   ***
 *** support thermostat for Particles! Ignoring thermostat input.        ***

 ************************** Velocities initialization **************************
 Initial Temperature                                                    564.84 K
 COM velocity:           -0.000000000004     -0.000000000000      0.000000000001
 *******************************************************************************

 FIRST CALL: force_env_calc_energy_force
 RESTART_KEY F
 FOB-SH: ALLOCATION OF S MATRICES
 ACTIVE STATE           3
 FOBSH| ACTIVE STATE =            3

 ENERGY| Total FORCE_EVAL ( MIXED ) energy (a.u.):             2.446232237135226

 STEP NUMBER                  =            0
 CPU TIME [s]                 =    0.0000000000000000        0.0000000000000000     

 MD_ENERGIES| Initialization proceeding


 ******************************** GO CP2K GO! **********************************
 INITIAL POTENTIAL ENERGY[hartree]     =                      0.244623223714E+01
 INITIAL KINETIC ENERGY[hartree]       =                      0.241212372912E+01
 INITIAL TEMPERATURE[K]                =                                 564.841
 INITIAL VOLUME[bohr^3]                =                      0.580604601118E+05
 INITIAL CELL LNTHS[bohr]   =      0.7651501E+02   0.5624770E+02   0.1634991E+02
 INITIAL CELL ANGLS[deg]    =      0.9000000E+02   0.1244000E+03   0.9000000E+02
 ******************************** GO CP2K GO! **********************************
 FOBSH| *** OFF-DIAGONAL GRADIENT CALCULATION
 FOBSH| Put former active state           3 in new active state           3
 RANDOM_NUMBER_HOPPING_PROBA   5.9147270233983230E-002
 FOBSH| ACTIVE STATE =            3

 ENERGY| Total FORCE_EVAL ( MIXED ) energy (a.u.):             2.417622462883075

 FOBSH| CASE1: no hop and no trivial crossing
 ENTER integrator.F
 STEP NUMBER                  =            1
 CPU TIME [s]                 =   0.78672683984041214       0.78672683984041214     

 *******************************************************************************
 ENSEMBLE TYPE                =                                              NVE
 STEP NUMBER                  =                                                1
 TIME [fs]                    =                                         0.100000
 CONSERVED QUANTITY [hartree] =                               0.485833409768E+01

                                              INSTANTANEOUS             AVERAGES
 CPU TIME [s]                 =                        0.79                 0.79
 ENERGY DRIFT PER ATOM [K]    =         -0.767282622205E-02   0.000000000000E+00
 POTENTIAL ENERGY[hartree]    =          0.241762246288E+01   0.241762246288E+01
 KINETIC ENERGY [hartree]     =          0.244071163479E+01   0.244071163479E+01
 TEMPERATURE [K]              =                     571.535              571.535
 *******************************************************************************

 FOBSH| *** OFF-DIAGONAL GRADIENT CALCULATION
 FOBSH| Put former active state           3 in new active state           3
 RANDOM_NUMBER_HOPPING_PROBA   6.0028801785314174E-002
 FOBSH| ACTIVE STATE =            3

 ENERGY| Total FORCE_EVAL ( MIXED ) energy (a.u.):             2.390387005314979

 FOBSH| CASE1: no hop and no trivial crossing
 ENTER integrator.F
 STEP NUMBER                  =            2
 CPU TIME [s]                 =   0.23823337256908417       0.51248010620474815     

 *******************************************************************************
 ENSEMBLE TYPE                =                                              NVE
 STEP NUMBER                  =                                                2
 TIME [fs]                    =                                         0.200000
 CONSERVED QUANTITY [hartree] =                               0.485831334273E+01

                                              INSTANTANEOUS             AVERAGES
 CPU TIME [s]                 =                        0.24                 0.51
 ENERGY DRIFT PER ATOM [K]    =         -0.149549234029E-01  -0.747746170146E-02
 POTENTIAL ENERGY[hartree]    =          0.239038700531E+01   0.240400473410E+01
 KINETIC ENERGY [hartree]     =          0.246792633741E+01   0.245431898610E+01
 TEMPERATURE [K]              =                     577.908              574.721
 *******************************************************************************

 FOBSH| *** OFF-DIAGONAL GRADIENT CALCULATION
 FOBSH| Put former active state           3 in new active state           3
 RANDOM_NUMBER_HOPPING_PROBA   7.3757525147303299E-002
 FOBSH| ACTIVE STATE =            3

 ENERGY| Total FORCE_EVAL ( MIXED ) energy (a.u.):             2.364855785299476

 FOBSH| CASE1: no hop and no trivial crossing
 ENTER integrator.F
 STEP NUMBER                  =            3
 CPU TIME [s]                 =   0.26099835895001888       0.42865285711983836     

 *******************************************************************************
 ENSEMBLE TYPE                =                                              NVE
 STEP NUMBER                  =                                                3
 TIME [fs]                    =                                         0.300000
 CONSERVED QUANTITY [hartree] =                               0.485829414497E+01

                                              INSTANTANEOUS             AVERAGES
 CPU TIME [s]                 =                        0.26                 0.43
 ENERGY DRIFT PER ATOM [K]    =         -0.216906615706E-01  -0.122151949912E-01
 POTENTIAL ENERGY[hartree]    =          0.236485578530E+01   0.239095508450E+01
 KINETIC ENERGY [hartree]     =          0.249343835967E+01   0.246735877729E+01
 TEMPERATURE [K]              =                     583.882              577.775
 *******************************************************************************

 FOBSH| *** OFF-DIAGONAL GRADIENT CALCULATION
 FOBSH| Put former active state           3 in new active state           3
 RANDOM_NUMBER_HOPPING_PROBA  0.80854958276690769     
 FOBSH| ACTIVE STATE =            3

 ENERGY| Total FORCE_EVAL ( MIXED ) energy (a.u.):             2.341333706452672

 FOBSH| CASE1: no hop and no trivial crossing
 ENTER integrator.F
 STEP NUMBER                  =            4
 CPU TIME [s]                 =   0.31697204150259495       0.40073265321552753     

 *******************************************************************************
 ENSEMBLE TYPE                =                                              NVE
 STEP NUMBER                  =                                                4
 TIME [fs]                    =                                         0.400000
 CONSERVED QUANTITY [hartree] =                               0.485827677974E+01

                                              INSTANTANEOUS             AVERAGES
 CPU TIME [s]                 =                        0.32                 0.40
 ENERGY DRIFT PER ATOM [K]    =         -0.277834408535E-01  -0.161072564568E-01
 POTENTIAL ENERGY[hartree]    =          0.234133370645E+01   0.237854973999E+01
 KINETIC ENERGY [hartree]     =          0.251694307328E+01   0.247975485129E+01
 TEMPERATURE [K]              =                     589.386              580.678
 *******************************************************************************

 FOBSH| *** OFF-DIAGONAL GRADIENT CALCULATION
 FOBSH| Put former active state           3 in new active state           3
 RANDOM_NUMBER_HOPPING_PROBA  0.83291450404706813     
 FOBSH| ACTIVE STATE =            3

 ENERGY| Total FORCE_EVAL ( MIXED ) energy (a.u.):             2.320096267148719

 FOBSH| CASE1: no hop and no trivial crossing
 ENTER integrator.F
 STEP NUMBER                  =            5
 CPU TIME [s]                 =   0.24104732461273670       0.36879558749496938     

 *******************************************************************************
 ENSEMBLE TYPE                =                                              NVE
 STEP NUMBER                  =                                                5
 TIME [fs]                    =                                         0.500000
 CONSERVED QUANTITY [hartree] =                               0.485826147144E+01

                                              INSTANTANEOUS             AVERAGES
 CPU TIME [s]                 =                        0.24                 0.37
 ENERGY DRIFT PER ATOM [K]    =         -0.331545209321E-01  -0.195167093518E-01
 POTENTIAL ENERGY[hartree]    =          0.232009626715E+01   0.236685904542E+01
 KINETIC ENERGY [hartree]     =          0.253816520429E+01   0.249143692189E+01
 TEMPERATURE [K]              =                     594.355              583.413
 *******************************************************************************

 FOBSH| *** OFF-DIAGONAL GRADIENT CALCULATION
 FOBSH| Put former active state           3 in new active state           3
 RANDOM_NUMBER_HOPPING_PROBA  0.18164339214140215     
 FOBSH| ACTIVE STATE =            3

 ENERGY| Total FORCE_EVAL ( MIXED ) energy (a.u.):             2.301385972312482

 FOBSH| CASE1: no hop and no trivial crossing
 ENTER integrator.F
 STEP NUMBER                  =            6
 CPU TIME [s]                 =   0.19057084247469902       0.33909146332492429     

 *******************************************************************************
 ENSEMBLE TYPE                =                                              NVE
 STEP NUMBER                  =                                                6
 TIME [fs]                    =                                         0.600000
 CONSERVED QUANTITY [hartree] =                               0.485824840174E+01

                                              INSTANTANEOUS             AVERAGES
 CPU TIME [s]                 =                        0.19                 0.34
 ENERGY DRIFT PER ATOM [K]    =         -0.377401637330E-01  -0.225539517487E-01
 POTENTIAL ENERGY[hartree]    =          0.230138597231E+01   0.235594686657E+01
 KINETIC ENERGY [hartree]     =          0.255686242943E+01   0.250234117315E+01
 TEMPERATURE [K]              =                     598.734              585.967
 *******************************************************************************

 FOBSH| *** OFF-DIAGONAL GRADIENT CALCULATION
 FOBSH| Put former active state           3 in new active state           3
 RANDOM_NUMBER_HOPPING_PROBA   1.5105624017764302E-002
 FOBSH| ACTIVE STATE =            3

 ENERGY| Total FORCE_EVAL ( MIXED ) energy (a.u.):             2.285409275641136

 FOBSH| CASE1: no hop and no trivial crossing
 ENTER integrator.F
 STEP NUMBER                  =            7
 CPU TIME [s]                 =   0.26082065887749195       0.32790991983243395     

 *******************************************************************************
 ENSEMBLE TYPE                =                                              NVE
 STEP NUMBER                  =                                                7
 TIME [fs]                    =                                         0.700000
 CONSERVED QUANTITY [hartree] =                               0.485823775325E+01

                                              INSTANTANEOUS             AVERAGES
 CPU TIME [s]                 =                        0.26                 0.33
 ENERGY DRIFT PER ATOM [K]    =         -0.414763024930E-01  -0.252571447122E-01
 POTENTIAL ENERGY[hartree]    =          0.228540927564E+01   0.234587006786E+01
 KINETIC ENERGY [hartree]     =          0.257282847761E+01   0.251241078807E+01
 TEMPERATURE [K]              =                     602.472              588.325
 *******************************************************************************

 FOBSH| *** OFF-DIAGONAL GRADIENT CALCULATION
 FOBSH| Put former active state           3 in new active state           3
 RANDOM_NUMBER_HOPPING_PROBA  0.24687190385287536     
 FOBSH| ACTIVE STATE =            3

 ENERGY| Total FORCE_EVAL ( MIXED ) energy (a.u.):             2.272333911542526

 FOBSH| CASE1: no hop and no trivial crossing
 ENTER integrator.F
 STEP NUMBER                  =            8
 CPU TIME [s]                 =   0.20374926738440990       0.31238983827643096     

 *******************************************************************************
 ENSEMBLE TYPE                =                                              NVE
 STEP NUMBER                  =                                                8
 TIME [fs]                    =                                         0.800000
 CONSERVED QUANTITY [hartree] =                               0.485822964012E+01

                                              INSTANTANEOUS             AVERAGES
 CPU TIME [s]                 =                        0.20                 0.31
 ENERGY DRIFT PER ATOM [K]    =         -0.443228817211E-01  -0.276403618383E-01
 POTENTIAL ENERGY[hartree]    =          0.227233391154E+01   0.233667804832E+01
 KINETIC ENERGY [hartree]     =          0.258589572857E+01   0.252159640563E+01
 TEMPERATURE [K]              =                     605.532              590.476
 *******************************************************************************

 FOBSH| *** OFF-DIAGONAL GRADIENT CALCULATION
 FOBSH| Put former active state           3 in new active state           3
 RANDOM_NUMBER_HOPPING_PROBA  0.83365123518729989     
 FOBSH| ACTIVE STATE =            3

 ENERGY| Total FORCE_EVAL ( MIXED ) energy (a.u.):             2.262286865884557

 FOBSH| CASE1: no hop and no trivial crossing
 ENTER integrator.F
 STEP NUMBER                  =            9
 CPU TIME [s]                 =   0.17097435705363750       0.29667700702945388     

 *******************************************************************************
 ENSEMBLE TYPE                =                                              NVE
 STEP NUMBER                  =                                                9
 TIME [fs]                    =                                         0.900000
 CONSERVED QUANTITY [hartree] =                               0.485822417355E+01

                                              INSTANTANEOUS             AVERAGES
 CPU TIME [s]                 =                        0.17                 0.30
 ENERGY DRIFT PER ATOM [K]    =         -0.462408856006E-01  -0.297070867008E-01
 POTENTIAL ENERGY[hartree]    =          0.226228686588E+01   0.232841236139E+01
 KINETIC ENERGY [hartree]     =          0.259593730766E+01   0.252985650586E+01
 TEMPERATURE [K]              =                     607.884              592.410
 *******************************************************************************

 FOBSH| *** OFF-DIAGONAL GRADIENT CALCULATION
 FOBSH| Put former active state           3 in new active state           3
 RANDOM_NUMBER_HOPPING_PROBA  0.47399308453094258     
 FOBSH| ACTIVE STATE =            3

 ENERGY| Total FORCE_EVAL ( MIXED ) energy (a.u.):             2.255352779709085

 FOBSH| CASE1: no hop and no trivial crossing
 ENTER integrator.F
 STEP NUMBER                  =           10
 CPU TIME [s]                 =   0.16886717081069946       0.28389602340757841     

 *******************************************************************************
 ENSEMBLE TYPE                =                                              NVE
 STEP NUMBER                  =                                               10
 TIME [fs]                    =                                         1.000000
 CONSERVED QUANTITY [hartree] =                               0.485822140734E+01

                                              INSTANTANEOUS             AVERAGES
 CPU TIME [s]                 =                        0.17                 0.28
 ENERGY DRIFT PER ATOM [K]    =         -0.472114408496E-01  -0.314575221156E-01
 POTENTIAL ENERGY[hartree]    =          0.225535277971E+01   0.232110640322E+01
 KINETIC ENERGY [hartree]     =          0.260286862763E+01   0.253715771804E+01
 TEMPERATURE [K]              =                     609.507              594.119
 *******************************************************************************

 FOBSH| *** OFF-DIAGONAL GRADIENT CALCULATION
 FOBSH| Put former active state           3 in new active state           3
 RANDOM_NUMBER_HOPPING_PROBA  0.27416560636517739     
 FOBSH| ACTIVE STATE =            3

 ENERGY| Total FORCE_EVAL ( MIXED ) energy (a.u.):             2.251572995375379

 FOBSH| CASE1: no hop and no trivial crossing
 ENTER integrator.F
 STEP NUMBER                  =           11
 CPU TIME [s]                 =   0.17083994112908840       0.27361819774589752     

 *******************************************************************************
 ENSEMBLE TYPE                =                                              NVE
 STEP NUMBER                  =                                               11
 TIME [fs]                    =                                         1.100000
 CONSERVED QUANTITY [hartree] =                               0.485822137923E+01

                                              INSTANTANEOUS             AVERAGES
 CPU TIME [s]                 =                        0.17                 0.27
 ENERGY DRIFT PER ATOM [K]    =         -0.472213024286E-01  -0.328905930532E-01
 POTENTIAL ENERGY[hartree]    =          0.225157299538E+01   0.231478518432E+01
 KINETIC ENERGY [hartree]     =          0.260664838385E+01   0.254347505129E+01
 TEMPERATURE [K]              =                     610.392              595.599
 *******************************************************************************

 FOBSH| *** OFF-DIAGONAL GRADIENT CALCULATION
 FOBSH| Put former active state           3 in new active state           3
 RANDOM_NUMBER_HOPPING_PROBA  0.45405030167718952     
 FOBSH| ACTIVE STATE =            3

 ENERGY| Total FORCE_EVAL ( MIXED ) energy (a.u.):             2.250945093185292

 FOBSH| CASE1: no hop and no trivial crossing
 ENTER integrator.F
 STEP NUMBER                  =           12
 CPU TIME [s]                 =   0.17220479622483253       0.26516708095247543     

 *******************************************************************************
 ENSEMBLE TYPE                =                                              NVE
 STEP NUMBER                  =                                               12
 TIME [fs]                    =                                         1.200000
 CONSERVED QUANTITY [hartree] =                               0.485822405502E+01

                                              INSTANTANEOUS             AVERAGES
 CPU TIME [s]                 =                        0.17                 0.27
 ENERGY DRIFT PER ATOM [K]    =         -0.462824729890E-01  -0.340065830478E-01
 POTENTIAL ENERGY[hartree]    =          0.225094509319E+01   0.230946517673E+01
 KINETIC ENERGY [hartree]     =          0.260727896183E+01   0.254879204384E+01
 TEMPERATURE [K]              =                     610.540              596.844
 *******************************************************************************

 FOBSH| *** OFF-DIAGONAL GRADIENT CALCULATION
 FOBSH| Put former active state           3 in new active state           3
 RANDOM_NUMBER_HOPPING_PROBA  0.54219999671392127     
 FOBSH| ACTIVE STATE =            3

 ENERGY| Total FORCE_EVAL ( MIXED ) energy (a.u.):             2.253423178707615

 FOBSH| CASE1: no hop and no trivial crossing
 ENTER integrator.F
 STEP NUMBER                  =           13
 CPU TIME [s]                 =   0.17007890902459621       0.25785260618879241     

 *******************************************************************************
 ENSEMBLE TYPE                =                                              NVE
 STEP NUMBER                  =                                               13
 TIME [fs]                    =                                         1.300000
 CONSERVED QUANTITY [hartree] =                               0.485822940650E+01

                                              INSTANTANEOUS             AVERAGES
 CPU TIME [s]                 =                        0.17                 0.26
 ENERGY DRIFT PER ATOM [K]    =         -0.444048478510E-01  -0.348064495712E-01
 POTENTIAL ENERGY[hartree]    =          0.225342317871E+01   0.230515425380E+01
 KINETIC ENERGY [hartree]     =          0.260480622779E+01   0.255310082722E+01
 TEMPERATURE [K]              =                     609.961              597.853
 *******************************************************************************

 FOBSH| *** OFF-DIAGONAL GRADIENT CALCULATION
 FOBSH| Put former active state           3 in new active state           3
 RANDOM_NUMBER_HOPPING_PROBA  0.78530724540909458     
 FOBSH| ACTIVE STATE =            3

 ENERGY| Total FORCE_EVAL ( MIXED ) energy (a.u.):             2.258918545523314

 FOBSH| CASE1: no hop and no trivial crossing
 ENTER integrator.F
 STEP NUMBER                  =           14
 CPU TIME [s]                 =   0.16662379913032055       0.25133626282747296     

 *******************************************************************************
 ENSEMBLE TYPE                =                                              NVE
 STEP NUMBER                  =                                               14
 TIME [fs]                    =                                         1.400000
 CONSERVED QUANTITY [hartree] =                               0.485823734542E+01

                                              INSTANTANEOUS             AVERAGES
 CPU TIME [s]                 =                        0.17                 0.25
 ENERGY DRIFT PER ATOM [K]    =         -0.416193939403E-01  -0.352930884547E-01
 POTENTIAL ENERGY[hartree]    =          0.225891854552E+01   0.230185170321E+01
 KINETIC ENERGY [hartree]     =          0.259931879989E+01   0.255640211098E+01
 TEMPERATURE [K]              =                     608.676              598.626
 *******************************************************************************

 FOBSH| *** OFF-DIAGONAL GRADIENT CALCULATION
 FOBSH| Put former active state           3 in new active state           3
 RANDOM_NUMBER_HOPPING_PROBA  0.35091300797413705     
 FOBSH| ACTIVE STATE =            3

 ENERGY| Total FORCE_EVAL ( MIXED ) energy (a.u.):             2.267300983730074

 FOBSH| CASE1: no hop and no trivial crossing
 ENTER integrator.F
 STEP NUMBER                  =           15
 CPU TIME [s]                 =   0.16738158464431763       0.24573928428192926     

 *******************************************************************************
 ENSEMBLE TYPE                =                                              NVE
 STEP NUMBER                  =                                               15
 TIME [fs]                    =                                         1.500000
 CONSERVED QUANTITY [hartree] =                               0.485824776688E+01

                                              INSTANTANEOUS             AVERAGES
 CPU TIME [s]                 =                        0.17                 0.25
 ENERGY DRIFT PER ATOM [K]    =         -0.379629109949E-01  -0.354710766240E-01
 POTENTIAL ENERGY[hartree]    =          0.226730098373E+01   0.229954832191E+01
 KINETIC ENERGY [hartree]     =          0.259094678315E+01   0.255870508913E+01
 TEMPERATURE [K]              =                     606.715              599.165
 *******************************************************************************

 FOBSH| *** OFF-DIAGONAL GRADIENT CALCULATION
 FOBSH| Put former active state           3 in new active state           3
 RANDOM_NUMBER_HOPPING_PROBA  0.51277297843638336     
 FOBSH| ACTIVE STATE =            3

 ENERGY| Total FORCE_EVAL ( MIXED ) energy (a.u.):             2.278400563720113

 FOBSH| CASE1: no hop and no trivial crossing
 ENTER integrator.F
 STEP NUMBER                  =           16
 CPU TIME [s]                 =   0.17907713539898396       0.24157289997674519     

 *******************************************************************************
 ENSEMBLE TYPE                =                                              NVE
 STEP NUMBER                  =                                               16
 TIME [fs]                    =                                         1.600000
 CONSERVED QUANTITY [hartree] =                               0.485826050891E+01

                                              INSTANTANEOUS             AVERAGES
 CPU TIME [s]                 =                        0.18                 0.24
 ENERGY DRIFT PER ATOM [K]    =         -0.334922354473E-01  -0.353473990505E-01
 POTENTIAL ENERGY[hartree]    =          0.227840056372E+01   0.229822658703E+01
 KINETIC ENERGY [hartree]     =          0.257985994519E+01   0.256002726763E+01
 TEMPERATURE [K]              =                     604.119              599.475
 *******************************************************************************

 FOBSH| *** OFF-DIAGONAL GRADIENT CALCULATION
 FOBSH| Put former active state           3 in new active state           3
 RANDOM_NUMBER_HOPPING_PROBA  0.56672912879839055     
 FOBSH| ACTIVE STATE =            3

 ENERGY| Total FORCE_EVAL ( MIXED ) energy (a.u.):             2.292010118091085

 FOBSH| CASE1: no hop and no trivial crossing
 ENTER integrator.F
 STEP NUMBER                  =           17
 CPU TIME [s]                 =   0.20422300882637501       0.23937584755613517     

 *******************************************************************************
 ENSEMBLE TYPE                =                                              NVE
 STEP NUMBER                  =                                               17
 TIME [fs]                    =                                         1.700000
 CONSERVED QUANTITY [hartree] =                               0.485827539858E+01

                                              INSTANTANEOUS             AVERAGES
 CPU TIME [s]                 =                        0.20                 0.24
 ENERGY DRIFT PER ATOM [K]    =         -0.282680347715E-01  -0.349309658576E-01
 POTENTIAL ENERGY[hartree]    =          0.229201011809E+01   0.229786091238E+01
 KINETIC ENERGY [hartree]     =          0.256626528049E+01   0.256039420956E+01
 TEMPERATURE [K]              =                     600.935              599.561
 *******************************************************************************

 FOBSH| *** OFF-DIAGONAL GRADIENT CALCULATION
 FOBSH| Put former active state           3 in new active state           3
 RANDOM_NUMBER_HOPPING_PROBA   4.1701011982236642E-002
 FOBSH| ACTIVE STATE =            3

 ENERGY| Total FORCE_EVAL ( MIXED ) energy (a.u.):             2.307888094048902

 FOBSH| CASE1: no hop and no trivial crossing
 ENTER integrator.F
 STEP NUMBER                  =           18
 CPU TIME [s]                 =   0.20495171844959259       0.23746339593910504     

 *******************************************************************************
 ENSEMBLE TYPE                =                                              NVE
 STEP NUMBER                  =                                               18
 TIME [fs]                    =                                         1.800000
 CONSERVED QUANTITY [hartree] =                               0.485829222921E+01

                                              INSTANTANEOUS             AVERAGES
 CPU TIME [s]                 =                        0.20                 0.24
 ENERGY DRIFT PER ATOM [K]    =         -0.223628257069E-01  -0.342327358492E-01
 POTENTIAL ENERGY[hartree]    =          0.230788809405E+01   0.229841797803E+01
 KINETIC ENERGY [hartree]     =          0.255040413516E+01   0.255983920543E+01
 TEMPERATURE [K]              =                     597.221              599.431
 *******************************************************************************

 FOBSH| *** OFF-DIAGONAL GRADIENT CALCULATION
 FOBSH| Put former active state           3 in new active state           3
 RANDOM_NUMBER_HOPPING_PROBA  0.23087441688912894     
 FOBSH| ACTIVE STATE =            3

 ENERGY| Total FORCE_EVAL ( MIXED ) energy (a.u.):             2.325761842148562

 FOBSH| CASE1: no hop and no trivial crossing
 ENTER integrator.F
 STEP NUMBER                  =           19
 CPU TIME [s]                 =   0.20184395648539066       0.23558868859943585     

 *******************************************************************************
 ENSEMBLE TYPE                =                                              NVE
 STEP NUMBER                  =                                               19
 TIME [fs]                    =                                         1.900000
 CONSERVED QUANTITY [hartree] =                               0.485831077556E+01

                                              INSTANTANEOUS             AVERAGES
 CPU TIME [s]                 =                        0.20                 0.24
 ENERGY DRIFT PER ATOM [K]    =         -0.158556418977E-01  -0.332655203781E-01
 POTENTIAL ENERGY[hartree]    =          0.232576184215E+01   0.229985712877E+01
 KINETIC ENERGY [hartree]     =          0.253254893341E+01   0.255840287532E+01
 TEMPERATURE [K]              =                     593.040              599.094
 *******************************************************************************

 FOBSH| *** OFF-DIAGONAL GRADIENT CALCULATION
 FOBSH| Put former active state           3 in new active state           3
 RANDOM_NUMBER_HOPPING_PROBA  0.10818778711908025     
 FOBSH| ACTIVE STATE =            3

 ENERGY| Total FORCE_EVAL ( MIXED ) energy (a.u.):             2.345331291399673

 FOBSH| CASE1: no hop and no trivial crossing
 ENTER integrator.F
 STEP NUMBER                  =           20
 CPU TIME [s]                 =   0.21448726952075958       0.23453361764550207     

 *******************************************************************************
 ENSEMBLE TYPE                =                                              NVE
 STEP NUMBER                  =                                               20
 TIME [fs]                    =                                         2.000000
 CONSERVED QUANTITY [hartree] =                               0.485833076913E+01

                                              INSTANTANEOUS             AVERAGES
 CPU TIME [s]                 =                        0.21                 0.23
 ENERGY DRIFT PER ATOM [K]    =         -0.884068142475E-02  -0.320442784304E-01
 POTENTIAL ENERGY[hartree]    =          0.234533129140E+01   0.230213083691E+01
 KINETIC ENERGY [hartree]     =          0.251299947773E+01   0.255613270544E+01
 TEMPERATURE [K]              =                     588.462              598.563
 *******************************************************************************

 FOBSH| *** OFF-DIAGONAL GRADIENT CALCULATION
 FOBSH| Put former active state           3 in new active state           3
 RANDOM_NUMBER_HOPPING_PROBA  0.22324767369672568     
 FOBSH| ACTIVE STATE =            3

 ENERGY| Total FORCE_EVAL ( MIXED ) energy (a.u.):             2.366273103463373

 FOBSH| CASE1: no hop and no trivial crossing
 ENTER integrator.F
 STEP NUMBER                  =           21
 CPU TIME [s]                 =   0.24638953804969788       0.23509818528379711     

 *******************************************************************************
 ENSEMBLE TYPE                =                                              NVE
 STEP NUMBER                  =                                               21
 TIME [fs]                    =                                         2.100000
 CONSERVED QUANTITY [hartree] =                               0.485835193955E+01

                                              INSTANTANEOUS             AVERAGES
 CPU TIME [s]                 =                        0.25                 0.24
 ENERGY DRIFT PER ATOM [K]    =         -0.141281511796E-02  -0.305856373203E-01
 POTENTIAL ENERGY[hartree]    =          0.236627310346E+01   0.230518523055E+01
 KINETIC ENERGY [hartree]     =          0.249207883608E+01   0.255308252119E+01
 TEMPERATURE [K]              =                     583.563              597.849
 *******************************************************************************

 FOBSH| *** OFF-DIAGONAL GRADIENT CALCULATION
 FOBSH| Put former active state           3 in new active state           3
 RANDOM_NUMBER_HOPPING_PROBA  0.53970963304387498     
 FOBSH| ACTIVE STATE =            3

 ENERGY| Total FORCE_EVAL ( MIXED ) energy (a.u.):             2.388245079896584

 FOBSH| CASE1: no hop and no trivial crossing
 ENTER integrator.F
 STEP NUMBER                  =           22
 CPU TIME [s]                 =   0.27039986848831177       0.23670280724763870     

 *******************************************************************************
 ENSEMBLE TYPE                =                                              NVE
 STEP NUMBER                  =                                               22
 TIME [fs]                    =                                         2.200000
 CONSERVED QUANTITY [hartree] =                               0.485837399704E+01

                                              INSTANTANEOUS             AVERAGES
 CPU TIME [s]                 =                        0.27                 0.24
 ENERGY DRIFT PER ATOM [K]    =          0.632629184699E-02  -0.289078223582E-01
 POTENTIAL ENERGY[hartree]    =          0.238824507990E+01   0.230896067825E+01
 KINETIC ENERGY [hartree]     =          0.247012891714E+01   0.254931190282E+01
 TEMPERATURE [K]              =                     578.423              596.966
 *******************************************************************************

 FOBSH| *** OFF-DIAGONAL GRADIENT CALCULATION
 FOBSH| Put former active state           3 in new active state           3
 RANDOM_NUMBER_HOPPING_PROBA   3.7455510299360881E-002
 FOBSH| ACTIVE STATE =            3

 ENERGY| Total FORCE_EVAL ( MIXED ) energy (a.u.):             2.410890801936019

 FOBSH| CASE1: no hop and no trivial crossing
 ENTER integrator.F
 STEP NUMBER                  =           23
 CPU TIME [s]                 =   0.16128201596438885       0.23342364240923652     

 *******************************************************************************
 ENSEMBLE TYPE                =                                              NVE
 STEP NUMBER                  =                                               23
 TIME [fs]                    =                                         2.300000
 CONSERVED QUANTITY [hartree] =                               0.485839665680E+01

                                              INSTANTANEOUS             AVERAGES
 CPU TIME [s]                 =                        0.16                 0.23
 ENERGY DRIFT PER ATOM [K]    =          0.142767131104E-01  -0.270302338595E-01
 POTENTIAL ENERGY[hartree]    =          0.241089080194E+01   0.231339242276E+01
 KINETIC ENERGY [hartree]     =          0.244750585487E+01   0.254488555291E+01
 TEMPERATURE [K]              =                     573.126              595.929
 *******************************************************************************

 FOBSH| *** OFF-DIAGONAL GRADIENT CALCULATION
 FOBSH| Put former active state           3 in new active state           3
 RANDOM_NUMBER_HOPPING_PROBA  0.50599131459514457     
 FOBSH| ACTIVE STATE =            3

 ENERGY| Total FORCE_EVAL ( MIXED ) energy (a.u.):             2.433844377503465

 FOBSH| CASE1: no hop and no trivial crossing
 ENTER integrator.F
 STEP NUMBER                  =           24
 CPU TIME [s]                 =   0.13076651655137539       0.22914626216515899     

 *******************************************************************************
 ENSEMBLE TYPE                =                                              NVE
 STEP NUMBER                  =                                               24
 TIME [fs]                    =                                         2.400000
 CONSERVED QUANTITY [hartree] =                               0.485841958871E+01

                                              INSTANTANEOUS             AVERAGES
 CPU TIME [s]                 =                        0.13                 0.23
 ENERGY DRIFT PER ATOM [K]    =          0.223226177744E-01  -0.249738650415E-01
 POTENTIAL ENERGY[hartree]    =          0.243384437750E+01   0.231841125420E+01
 KINETIC ENERGY [hartree]     =          0.242457521120E+01   0.253987262201E+01
 TEMPERATURE [K]              =                     567.756              594.755
 *******************************************************************************

 FOBSH| *** OFF-DIAGONAL GRADIENT CALCULATION
 FOBSH| Put former active state           3 in new active state           3
 RANDOM_NUMBER_HOPPING_PROBA  0.97666355388844839     
 FOBSH| ATTEMPTED_HOP
 FOBSH| ACTIVE STATE =            3

 ENERGY| Total FORCE_EVAL ( MIXED ) energy (a.u.):             2.456735465968939

 FOBSH| Active state before the attempt to hop:           3
 FOBSH| Active state after the attempt to hop:           3
 FOBSH| CASE4: rejected hop and good overlap
 ENTER integrator.F
 STEP NUMBER                  =           25
 CPU TIME [s]                 =   0.19295195303857327       0.22769848980009555     

 *******************************************************************************
 ENSEMBLE TYPE                =                                              NVE
 STEP NUMBER                  =                                               25
 TIME [fs]                    =                                         2.500000
 CONSERVED QUANTITY [hartree] =                               0.485844247257E+01

                                              INSTANTANEOUS             AVERAGES
 CPU TIME [s]                 =                        0.19                 0.23
 ENERGY DRIFT PER ATOM [K]    =          0.303516651303E-01  -0.227608438346E-01
 POTENTIAL ENERGY[hartree]    =          0.245673546597E+01   0.232394422268E+01
 KINETIC ENERGY [hartree]     =          0.240170700660E+01   0.253434599739E+01
 TEMPERATURE [K]              =                     562.401              593.461
 *******************************************************************************

 FOBSH| *** OFF-DIAGONAL GRADIENT CALCULATION
 FOBSH| Put former active state           3 in new active state           3
 RANDOM_NUMBER_HOPPING_PROBA  0.12840580700626780     
 FOBSH| ACTIVE STATE =            3

 ENERGY| Total FORCE_EVAL ( MIXED ) energy (a.u.):             2.479243632059394

 FOBSH| CASE1: no hop and no trivial crossing
 ENTER integrator.F
 STEP NUMBER                  =           26
 CPU TIME [s]                 =   0.20147476531565189       0.22668988501223236     

 *******************************************************************************
 ENSEMBLE TYPE                =                                              NVE
 STEP NUMBER                  =                                               26
 TIME [fs]                    =                                         2.600000
 CONSERVED QUANTITY [hartree] =                               0.485846502253E+01

                                              INSTANTANEOUS             AVERAGES
 CPU TIME [s]                 =                        0.20                 0.23
 ENERGY DRIFT PER ATOM [K]    =          0.382635628342E-01  -0.204137512704E-01
 POTENTIAL ENERGY[hartree]    =          0.247924363206E+01   0.232991727688E+01
 KINETIC ENERGY [hartree]     =          0.237922139047E+01   0.252837966635E+01
 TEMPERATURE [K]              =                     557.136              592.064
 *******************************************************************************

 FOBSH| *** OFF-DIAGONAL GRADIENT CALCULATION
 FOBSH| Put former active state           3 in new active state           3
 RANDOM_NUMBER_HOPPING_PROBA  0.80710812468977888     
 FOBSH| ACTIVE STATE =            3

 ENERGY| Total FORCE_EVAL ( MIXED ) energy (a.u.):             2.500958847059820

 FOBSH| CASE1: no hop and no trivial crossing
 ENTER integrator.F
 STEP NUMBER                  =           27
 CPU TIME [s]                 =   0.21466288901865482       0.22624444071617394     

 *******************************************************************************
 ENSEMBLE TYPE                =                                              NVE
 STEP NUMBER                  =                                               27
 TIME [fs]                    =                                         2.700000
 CONSERVED QUANTITY [hartree] =                               0.485848692121E+01

                                              INSTANTANEOUS             AVERAGES
 CPU TIME [s]                 =                        0.21                 0.23
 ENERGY DRIFT PER ATOM [K]    =          0.459469490147E-01  -0.179559475561E-01
 POTENTIAL ENERGY[hartree]    =          0.250095884706E+01   0.233625214985E+01
 KINETIC ENERGY [hartree]     =          0.235752807415E+01   0.252205182961E+01
 TEMPERATURE [K]              =                     552.056              590.582
 *******************************************************************************

 FOBSH| *** OFF-DIAGONAL GRADIENT CALCULATION
 FOBSH| Put former active state           3 in new active state           3
 RANDOM_NUMBER_HOPPING_PROBA  0.36348714134779886     
 FOBSH| ACTIVE STATE =            3

 ENERGY| Total FORCE_EVAL ( MIXED ) energy (a.u.):             2.521527206071591

 FOBSH| CASE1: no hop and no trivial crossing
 ENTER integrator.F
 STEP NUMBER                  =           28
 CPU TIME [s]                 =   0.18500497564673424       0.22477160267797966     

 *******************************************************************************
 ENSEMBLE TYPE                =                                              NVE
 STEP NUMBER                  =                                               28
 TIME [fs]                    =                                         2.800000
 CONSERVED QUANTITY [hartree] =                               0.485850786796E+01

                                              INSTANTANEOUS             AVERAGES
 CPU TIME [s]                 =                        0.19                 0.22
 ENERGY DRIFT PER ATOM [K]    =          0.532963387718E-01  -0.154112230444E-01
 POTENTIAL ENERGY[hartree]    =          0.252152720607E+01   0.234286911615E+01
 KINETIC ENERGY [hartree]     =          0.233698066188E+01   0.251544214505E+01
 TEMPERATURE [K]              =                     547.245              589.034
 *******************************************************************************

 FOBSH| *** OFF-DIAGONAL GRADIENT CALCULATION
 FOBSH| Put former active state           3 in new active state           3
 RANDOM_NUMBER_HOPPING_PROBA  0.85522378722358217     
 FOBSH| ACTIVE STATE =            3

 ENERGY| Total FORCE_EVAL ( MIXED ) energy (a.u.):             2.540610055360538

 FOBSH| CASE1: no hop and no trivial crossing
 ENTER integrator.F
 STEP NUMBER                  =           29
 CPU TIME [s]                 =   0.18883674219250679       0.22353246955779094     

 *******************************************************************************
 ENSEMBLE TYPE                =                                              NVE
 STEP NUMBER                  =                                               29
 TIME [fs]                    =                                         2.900000
 CONSERVED QUANTITY [hartree] =                               0.485852757663E+01

                                              INSTANTANEOUS             AVERAGES
 CPU TIME [s]                 =                        0.19                 0.22
 ENERGY DRIFT PER ATOM [K]    =          0.602113392642E-01  -0.128035484821E-01
 POTENTIAL ENERGY[hartree]    =          0.254061005536E+01   0.234968776922E+01
 KINETIC ENERGY [hartree]     =          0.231791752127E+01   0.250863095112E+01
 TEMPERATURE [K]              =                     542.781              587.439
 *******************************************************************************

 FOBSH| *** OFF-DIAGONAL GRADIENT CALCULATION
 FOBSH| Put former active state           3 in new active state           3
 RANDOM_NUMBER_HOPPING_PROBA  0.67034729650063396     
 FOBSH| ACTIVE STATE =            3

 ENERGY| Total FORCE_EVAL ( MIXED ) energy (a.u.):             2.557888631170599

 FOBSH| CASE1: no hop and no trivial crossing
 ENTER integrator.F
 STEP NUMBER                  =           30
 CPU TIME [s]                 =   0.17596100270748138       0.22194675399611394     

 *******************************************************************************
 ENSEMBLE TYPE                =                                              NVE
 STEP NUMBER                  =                                               30
 TIME [fs]                    =                                         3.000000
 CONSERVED QUANTITY [hartree] =                               0.485854580974E+01

                                              INSTANTANEOUS             AVERAGES
 CPU TIME [s]                 =                        0.18                 0.22
 ENERGY DRIFT PER ATOM [K]    =          0.666086192031E-01  -0.101564762259E-01
 POTENTIAL ENERGY[hartree]    =          0.255788863117E+01   0.235662779795E+01
 KINETIC ENERGY [hartree]     =          0.230065717857E+01   0.250169849204E+01
 TEMPERATURE [K]              =                     538.739              585.816
 *******************************************************************************

 FOBSH| *** OFF-DIAGONAL GRADIENT CALCULATION
 FOBSH| Put former active state           3 in new active state           3
 RANDOM_NUMBER_HOPPING_PROBA  0.95194410928626894     
 FOBSH| ACTIVE STATE =            3

 ENERGY| Total FORCE_EVAL ( MIXED ) energy (a.u.):             2.573068236664712

 FOBSH| CASE1: no hop and no trivial crossing
 ENTER integrator.F
 STEP NUMBER                  =           31
 CPU TIME [s]                 =   0.19271310046315193       0.22100373291440548     

 *******************************************************************************
 ENSEMBLE TYPE                =                                              NVE
 STEP NUMBER                  =                                               31
 TIME [fs]                    =                                         3.100000
 CONSERVED QUANTITY [hartree] =                               0.485856224100E+01

                                              INSTANTANEOUS             AVERAGES
 CPU TIME [s]                 =                        0.19                 0.22
 ENERGY DRIFT PER ATOM [K]    =          0.723737052581E-01  -0.749421230704E-02
 POTENTIAL ENERGY[hartree]    =          0.257306823666E+01   0.236360974759E+01
 KINETIC ENERGY [hartree]     =          0.228549400434E+01   0.249472415372E+01
 TEMPERATURE [K]              =                     535.188              584.183
 *******************************************************************************

 FOBSH| *** OFF-DIAGONAL GRADIENT CALCULATION
 FOBSH| Put former active state           3 in new active state           3
 RANDOM_NUMBER_HOPPING_PROBA  0.40303366510919353     
 FOBSH| ACTIVE STATE =            3

 ENERGY| Total FORCE_EVAL ( MIXED ) energy (a.u.):             2.585882546751264

 FOBSH| CASE1: no hop and no trivial crossing
 ENTER integrator.F
 STEP NUMBER                  =           32
 CPU TIME [s]                 =   0.17180277407169342       0.21946620295057073     

 *******************************************************************************
 ENSEMBLE TYPE                =                                              NVE
 STEP NUMBER                  =                                               32
 TIME [fs]                    =                                         3.200000
 CONSERVED QUANTITY [hartree] =                               0.485857668791E+01

                                              INSTANTANEOUS             AVERAGES
 CPU TIME [s]                 =                        0.17                 0.22
 ENERGY DRIFT PER ATOM [K]    =          0.774425558075E-01  -0.483993830347E-02
 POTENTIAL ENERGY[hartree]    =          0.258588254675E+01   0.237055577256E+01
 KINETIC ENERGY [hartree]     =          0.227269414115E+01   0.248778571583E+01
 TEMPERATURE [K]              =                     532.191              582.558
 *******************************************************************************

 FOBSH| *** OFF-DIAGONAL GRADIENT CALCULATION
 FOBSH| Put former active state           3 in new active state           3
 RANDOM_NUMBER_HOPPING_PROBA   6.3990691283266954E-002
 FOBSH| ACTIVE STATE =            3

 ENERGY| Total FORCE_EVAL ( MIXED ) energy (a.u.):             2.596097083642882

 FOBSH| CASE1: no hop and no trivial crossing
 ENTER integrator.F
 STEP NUMBER                  =           33
 CPU TIME [s]                 =   0.16641452535986900       0.21785857635691311     

 *******************************************************************************
 ENSEMBLE TYPE                =                                              NVE
 STEP NUMBER                  =                                               33
 TIME [fs]                    =                                         3.300000
 CONSERVED QUANTITY [hartree] =                               0.485858894682E+01

                                              INSTANTANEOUS             AVERAGES
 CPU TIME [s]                 =                        0.17                 0.22
 ENERGY DRIFT PER ATOM [K]    =          0.817437263717E-01  -0.221619088907E-02
 POTENTIAL ENERGY[hartree]    =          0.259609708364E+01   0.237739035775E+01
 KINETIC ENERGY [hartree]     =          0.226249186317E+01   0.248095862939E+01
 TEMPERATURE [K]              =                     529.802              580.959
 *******************************************************************************

 FOBSH| *** OFF-DIAGONAL GRADIENT CALCULATION
 FOBSH| Put former active state           3 in new active state           3
 RANDOM_NUMBER_HOPPING_PROBA  0.44240387110505380     
 FOBSH| ACTIVE STATE =            3

 ENERGY| Total FORCE_EVAL ( MIXED ) energy (a.u.):             2.603512466796418

 FOBSH| CASE1: no hop and no trivial crossing
 ENTER integrator.F
 STEP NUMBER                  =           34
 CPU TIME [s]                 =   0.19591390714049339       0.21721314490937135     

 *******************************************************************************
 ENSEMBLE TYPE                =                                              NVE
 STEP NUMBER                  =                                               34
 TIME [fs]                    =                                         3.400000
 CONSERVED QUANTITY [hartree] =                               0.485859883757E+01

                                              INSTANTANEOUS             AVERAGES
 CPU TIME [s]                 =                        0.20                 0.22
 ENERGY DRIFT PER ATOM [K]    =          0.852140044584E-01   0.355285444684E-03
 POTENTIAL ENERGY[hartree]    =          0.260351246680E+01   0.238404100801E+01
 KINETIC ENERGY [hartree]     =          0.225508637078E+01   0.247431532766E+01
 TEMPERATURE [K]              =                     528.068              579.404
 *******************************************************************************

 FOBSH| *** OFF-DIAGONAL GRADIENT CALCULATION
 FOBSH| Put former active state           3 in new active state           3
 RANDOM_NUMBER_HOPPING_PROBA  0.37053832739404691     
 FOBSH| ACTIVE STATE =            3

 ENERGY| Total FORCE_EVAL ( MIXED ) energy (a.u.):             2.607967206897646

 FOBSH| CASE1: no hop and no trivial crossing
 ENTER integrator.F
 STEP NUMBER                  =           35
 CPU TIME [s]                 =   0.17869783751666546       0.21611270755529402     

 *******************************************************************************
 ENSEMBLE TYPE                =                                              NVE
 STEP NUMBER                  =                                               35
 TIME [fs]                    =                                         3.500000
 CONSERVED QUANTITY [hartree] =                               0.485860622248E+01

                                              INSTANTANEOUS             AVERAGES
 CPU TIME [s]                 =                        0.18                 0.22
 ENERGY DRIFT PER ATOM [K]    =          0.878050778514E-01   0.285385094202E-02
 POTENTIAL ENERGY[hartree]    =          0.260796720690E+01   0.239043889941E+01
 KINETIC ENERGY [hartree]     =          0.225063901558E+01   0.246792457589E+01
 TEMPERATURE [K]              =                     527.026              577.907
 *******************************************************************************

 FOBSH| *** OFF-DIAGONAL GRADIENT CALCULATION
 FOBSH| New map:            1           2           3           0           0           6           7           8
 FOBSH! New map again:           1           2           3           0           0           6           7           8
 FOBSH| Put former active state           3 in new active state           3
 RANDOM_NUMBER_HOPPING_PROBA  0.79109232280105435     
 FOBSH| ACTIVE STATE =            3

 ENERGY| Total FORCE_EVAL ( MIXED ) energy (a.u.):             2.609339964738516

 FOBSH| CASE1: no hop and no trivial crossing
 ENTER integrator.F
 STEP NUMBER                  =           36
 CPU TIME [s]                 =   0.20547720789909363       0.21581727700928843     

 *******************************************************************************
 ENSEMBLE TYPE                =                                              NVE
 STEP NUMBER                  =                                               36
 TIME [fs]                    =                                         3.600000
 CONSERVED QUANTITY [hartree] =                               0.485861099243E+01

                                              INSTANTANEOUS             AVERAGES
 CPU TIME [s]                 =                        0.21                 0.22
 ENERGY DRIFT PER ATOM [K]    =          0.894786674818E-01   0.526009584590E-02
 POTENTIAL ENERGY[hartree]    =          0.260933996474E+01   0.239651948456E+01
 KINETIC ENERGY [hartree]     =          0.224927102770E+01   0.246185086622E+01
 TEMPERATURE [K]              =                     526.706              576.485
 *******************************************************************************

 FOBSH| *** OFF-DIAGONAL GRADIENT CALCULATION
 FOBSH| New map:            1           2           3           0           0           6           7           8
 FOBSH! New map again:           1           2           3           0           0           6           7           8
 FOBSH| Put former active state           3 in new active state           3
 RANDOM_NUMBER_HOPPING_PROBA   9.1827710182444136E-002
 FOBSH| ACTIVE STATE =            3

 ENERGY| Total FORCE_EVAL ( MIXED ) energy (a.u.):             2.607551276830550

 FOBSH| CASE1: no hop and no trivial crossing
 ENTER integrator.F
 STEP NUMBER                  =           37
 CPU TIME [s]                 =   0.16711142286658287       0.21450090257299909     

 *******************************************************************************
 ENSEMBLE TYPE                =                                              NVE
 STEP NUMBER                  =                                               37
 TIME [fs]                    =                                         3.700000
 CONSERVED QUANTITY [hartree] =                               0.485861306364E+01

                                              INSTANTANEOUS             AVERAGES
 CPU TIME [s]                 =                        0.17                 0.21
 ENERGY DRIFT PER ATOM [K]    =          0.902053702846E-01   0.755591407398E-02
 POTENTIAL ENERGY[hartree]    =          0.260755127683E+01   0.240222304651E+01
 KINETIC ENERGY [hartree]     =          0.225106178680E+01   0.245615386407E+01
 TEMPERATURE [K]              =                     527.125              575.151
 *******************************************************************************

 FOBSH| *** OFF-DIAGONAL GRADIENT CALCULATION
 FOBSH| Put former active state           3 in new active state           3
 RANDOM_NUMBER_HOPPING_PROBA  0.93278955296152910     
 FOBSH| ACTIVE STATE =            3

 ENERGY| Total FORCE_EVAL ( MIXED ) energy (a.u.):             2.602564780784043

 FOBSH| CASE1: no hop and no trivial crossing
 ENTER integrator.F
 STEP NUMBER                  =           38
 CPU TIME [s]                 =   0.17769540846347809       0.21353233693853799     

 *******************************************************************************
 ENSEMBLE TYPE                =                                              NVE
 STEP NUMBER                  =                                               38
 TIME [fs]                    =                                         3.800000
 CONSERVED QUANTITY [hartree] =                               0.485861242504E+01

                                              INSTANTANEOUS             AVERAGES
 CPU TIME [s]                 =                        0.18                 0.21
 ENERGY DRIFT PER ATOM [K]    =          0.899813113174E-01   0.972500347512E-02
 POTENTIAL ENERGY[hartree]    =          0.260256478078E+01   0.240749519741E+01
 KINETIC ENERGY [hartree]     =          0.225604764425E+01   0.245088791092E+01
 TEMPERATURE [K]              =                     528.293              573.918
 *******************************************************************************

 FOBSH| *** OFF-DIAGONAL GRADIENT CALCULATION
 FOBSH| Put former active state           3 in new active state           3
 RANDOM_NUMBER_HOPPING_PROBA  0.66895875268229765     
 FOBSH| ACTIVE STATE =            3

 ENERGY| Total FORCE_EVAL ( MIXED ) energy (a.u.):             2.594387786291324

 FOBSH| CASE1: no hop and no trivial crossing
 ENTER integrator.F
 STEP NUMBER                  =           39
 CPU TIME [s]                 =   0.17237731628119946       0.21247707999860624     

 *******************************************************************************
 ENSEMBLE TYPE                =                                              NVE
 STEP NUMBER                  =                                               39
 TIME [fs]                    =                                         3.900000
 CONSERVED QUANTITY [hartree] =                               0.485860905211E+01

                                              INSTANTANEOUS             AVERAGES
 CPU TIME [s]                 =                        0.17                 0.21
 ENERGY DRIFT PER ATOM [K]    =          0.887978837187E-01   0.117525132250E-01
 POTENTIAL ENERGY[hartree]    =          0.259438778629E+01   0.241228731508E+01
 KINETIC ENERGY [hartree]     =          0.226422126582E+01   0.244610158668E+01
 TEMPERATURE [K]              =                     530.207              572.797
 *******************************************************************************

 FOBSH| *** OFF-DIAGONAL GRADIENT CALCULATION
 FOBSH| Put former active state           3 in new active state           3
 RANDOM_NUMBER_HOPPING_PROBA   7.0495669884397497E-002
 FOBSH| ACTIVE STATE =            3

 ENERGY| Total FORCE_EVAL ( MIXED ) energy (a.u.):             2.583071397356234

 FOBSH| CASE1: no hop and no trivial crossing
 ENTER integrator.F
 STEP NUMBER                  =           40
 CPU TIME [s]                 =   0.17964386008679867       0.21165624950081108     

 *******************************************************************************
 ENSEMBLE TYPE                =                                              NVE
 STEP NUMBER                  =                                               40
 TIME [fs]                    =                                         4.000000
 CONSERVED QUANTITY [hartree] =                               0.485860299045E+01

                                              INSTANTANEOUS             AVERAGES
 CPU TIME [s]                 =                        0.18                 0.21
 ENERGY DRIFT PER ATOM [K]    =          0.866710864564E-01   0.136254775557E-01
 POTENTIAL ENERGY[hartree]    =          0.258307139736E+01   0.241655691713E+01
 KINETIC ENERGY [hartree]     =          0.227553159310E+01   0.244183733685E+01
 TEMPERATURE [K]              =                     532.855              571.799
 *******************************************************************************

 FOBSH| *** OFF-DIAGONAL GRADIENT CALCULATION
 FOBSH| Put former active state           3 in new active state           3
 RANDOM_NUMBER_HOPPING_PROBA  0.44837893062802447     
 FOBSH| ACTIVE STATE =            3

 ENERGY| Total FORCE_EVAL ( MIXED ) energy (a.u.):             2.568709952323037

 FOBSH| CASE1: no hop and no trivial crossing
 ENTER integrator.F
 STEP NUMBER                  =           41
 CPU TIME [s]                 =   0.18796800263226032       0.21107848738206597     

 *******************************************************************************
 ENSEMBLE TYPE                =                                              NVE
 STEP NUMBER                  =                                               41
 TIME [fs]                    =                                         4.100000
 CONSERVED QUANTITY [hartree] =                               0.485859430154E+01

                                              INSTANTANEOUS             AVERAGES
 CPU TIME [s]                 =                        0.19                 0.21
 ENERGY DRIFT PER ATOM [K]    =          0.836224866830E-01   0.153327216808E-01
 POTENTIAL ENERGY[hartree]    =          0.256870995232E+01   0.242026796677E+01
 KINETIC ENERGY [hartree]     =          0.228988434921E+01   0.243813116641E+01
 TEMPERATURE [K]              =                     536.216              570.931
 *******************************************************************************

 FOBSH| *** OFF-DIAGONAL GRADIENT CALCULATION
 FOBSH| Put former active state           3 in new active state           3
 RANDOM_NUMBER_HOPPING_PROBA  0.53199482212190596     
 FOBSH| ACTIVE STATE =            3

 ENERGY| Total FORCE_EVAL ( MIXED ) energy (a.u.):             2.551439986586283

 FOBSH| CASE1: no hop and no trivial crossing
 ENTER integrator.F
 STEP NUMBER                  =           42
 CPU TIME [s]                 =   0.19285393878817558       0.21064456955840188     

 *******************************************************************************
 ENSEMBLE TYPE                =                                              NVE
 STEP NUMBER                  =                                               42
 TIME [fs]                    =                                         4.200000
 CONSERVED QUANTITY [hartree] =                               0.485858308545E+01

                                              INSTANTANEOUS             AVERAGES
 CPU TIME [s]                 =                        0.19                 0.21
 ENERGY DRIFT PER ATOM [K]    =          0.796872039603E-01   0.168649712589E-01
 POTENTIAL ENERGY[hartree]    =          0.255143998659E+01   0.242339111010E+01
 KINETIC ENERGY [hartree]     =          0.230714309887E+01   0.243501240290E+01
 TEMPERATURE [K]              =                     540.258              570.200
 *******************************************************************************

 FOBSH| *** OFF-DIAGONAL GRADIENT CALCULATION
 FOBSH| Put former active state           3 in new active state           3
 RANDOM_NUMBER_HOPPING_PROBA  0.57730720845980099     
 FOBSH| ACTIVE STATE =            3

 ENERGY| Total FORCE_EVAL ( MIXED ) energy (a.u.):             2.531438580933397

 FOBSH| CASE1: no hop and no trivial crossing
 ENTER integrator.F
 STEP NUMBER                  =           43
 CPU TIME [s]                 =   0.20281357504427433       0.21046245340691055     

 *******************************************************************************
 ENSEMBLE TYPE                =                                              NVE
 STEP NUMBER                  =                                               43
 TIME [fs]                    =                                         4.300000
 CONSERVED QUANTITY [hartree] =                               0.485856948229E+01

                                              INSTANTANEOUS             AVERAGES
 CPU TIME [s]                 =                        0.20                 0.21
 ENERGY DRIFT PER ATOM [K]    =          0.749143866352E-01   0.182149576630E-01
 POTENTIAL ENERGY[hartree]    =          0.253143858093E+01   0.242590384198E+01
 KINETIC ENERGY [hartree]     =          0.232713090135E+01   0.243250353077E+01
 TEMPERATURE [K]              =                     544.938              569.613
 *******************************************************************************

 FOBSH| *** OFF-DIAGONAL GRADIENT CALCULATION
 FOBSH| Put former active state           3 in new active state           3
 RANDOM_NUMBER_HOPPING_PROBA   1.6928433561957019E-002
 FOBSH| ACTIVE STATE =            3

 ENERGY| Total FORCE_EVAL ( MIXED ) energy (a.u.):             2.508921131462369

 FOBSH| CASE1: no hop and no trivial crossing
 ENTER integrator.F
 STEP NUMBER                  =           44
 CPU TIME [s]                 =   0.16751933842897415       0.20948647352104838     

 *******************************************************************************
 ENSEMBLE TYPE                =                                              NVE
 STEP NUMBER                  =                                               44
 TIME [fs]                    =                                         4.400000
 CONSERVED QUANTITY [hartree] =                               0.485855365765E+01

                                              INSTANTANEOUS             AVERAGES
 CPU TIME [s]                 =                        0.17                 0.21
 ENERGY DRIFT PER ATOM [K]    =          0.693621449490E-01   0.193773937377E-01
 POTENTIAL ENERGY[hartree]    =          0.250892113146E+01   0.242779059856E+01
 KINETIC ENERGY [hartree]     =          0.234963252619E+01   0.243062009885E+01
 TEMPERATURE [K]              =                     550.207              569.172
 *******************************************************************************

 FOBSH| *** OFF-DIAGONAL GRADIENT CALCULATION
 FOBSH| Put former active state           3 in new active state           3
 RANDOM_NUMBER_HOPPING_PROBA  0.13144936141126493     
 FOBSH| ACTIVE STATE =            3

 ENERGY| Total FORCE_EVAL ( MIXED ) energy (a.u.):             2.484138673604514

 FOBSH| CASE1: no hop and no trivial crossing
 ENTER integrator.F
 STEP NUMBER                  =           45
 CPU TIME [s]                 =   0.21456077136099339       0.20959923569526939     

 *******************************************************************************
 ENSEMBLE TYPE                =                                              NVE
 STEP NUMBER                  =                                               45
 TIME [fs]                    =                                         4.500000
 CONSERVED QUANTITY [hartree] =                               0.485853580776E+01

                                              INSTANTANEOUS             AVERAGES
 CPU TIME [s]                 =                        0.21                 0.21
 ENERGY DRIFT PER ATOM [K]    =          0.630993167646E-01   0.203489920271E-01
 POTENTIAL ENERGY[hartree]    =          0.248413867360E+01   0.242904277801E+01
 KINETIC ENERGY [hartree]     =          0.237439713415E+01   0.242937069964E+01
 TEMPERATURE [K]              =                     556.006              568.879
 *******************************************************************************

 FOBSH| *** OFF-DIAGONAL GRADIENT CALCULATION
 FOBSH| Put former active state           3 in new active state           3
 RANDOM_NUMBER_HOPPING_PROBA   6.6529961963703879E-002
 FOBSH| ACTIVE STATE =            3

 ENERGY| Total FORCE_EVAL ( MIXED ) energy (a.u.):             2.457374799630573

 FOBSH| CASE1: no hop and no trivial crossing
 ENTER integrator.F
 STEP NUMBER                  =           46
 CPU TIME [s]                 =   0.20456130988895893       0.20948971556904522     

 *******************************************************************************
 ENSEMBLE TYPE                =                                              NVE
 STEP NUMBER                  =                                               46
 TIME [fs]                    =                                         4.600000
 CONSERVED QUANTITY [hartree] =                               0.485851617067E+01

                                              INSTANTANEOUS             AVERAGES
 CPU TIME [s]                 =                        0.20                 0.21
 ENERGY DRIFT PER ATOM [K]    =          0.562094337132E-01   0.211285668464E-01
 POTENTIAL ENERGY[hartree]    =          0.245737479963E+01   0.242965869152E+01
 KINETIC ENERGY [hartree]     =          0.240114137104E+01   0.242875701858E+01
 TEMPERATURE [K]              =                     562.269              568.736
 *******************************************************************************

 FOBSH| *** OFF-DIAGONAL GRADIENT CALCULATION
 FOBSH| Put former active state           3 in new active state           3
 RANDOM_NUMBER_HOPPING_PROBA  0.13624522447097273     
 FOBSH| ACTIVE STATE =            3

 ENERGY| Total FORCE_EVAL ( MIXED ) energy (a.u.):             2.428941993246758

 FOBSH| CASE1: no hop and no trivial crossing
 ENTER integrator.F
 STEP NUMBER                  =           47
 CPU TIME [s]                 =   0.20680289156734943       0.20943254910092404     

 *******************************************************************************
 ENSEMBLE TYPE                =                                              NVE
 STEP NUMBER                  =                                               47
 TIME [fs]                    =                                         4.700000
 CONSERVED QUANTITY [hartree] =                               0.485849497861E+01

                                              INSTANTANEOUS             AVERAGES
 CPU TIME [s]                 =                        0.21                 0.21
 ENERGY DRIFT PER ATOM [K]    =          0.487739731656E-01   0.217167669809E-01
 POTENTIAL ENERGY[hartree]    =          0.242894199325E+01   0.242964344262E+01
 KINETIC ENERGY [hartree]     =          0.242955298536E+01   0.242877395404E+01
 TEMPERATURE [K]              =                     568.922              568.740
 *******************************************************************************

 FOBSH| *** OFF-DIAGONAL GRADIENT CALCULATION
 FOBSH| Put former active state           3 in new active state           3
 RANDOM_NUMBER_HOPPING_PROBA  0.53373438748921098     
 FOBSH| ACTIVE STATE =            3

 ENERGY| Total FORCE_EVAL ( MIXED ) energy (a.u.):             2.399177707599025

 FOBSH| CASE1: no hop and no trivial crossing
 ENTER integrator.F
 STEP NUMBER                  =           48
 CPU TIME [s]                 =   0.21984534338116646       0.20964948231509575     

 *******************************************************************************
 ENSEMBLE TYPE                =                                              NVE
 STEP NUMBER                  =                                               48
 TIME [fs]                    =                                         4.800000
 CONSERVED QUANTITY [hartree] =                               0.485847251393E+01

                                              INSTANTANEOUS             AVERAGES
 CPU TIME [s]                 =                        0.22                 0.21
 ENERGY DRIFT PER ATOM [K]    =          0.408919994566E-01   0.221162509908E-01
 POTENTIAL ENERGY[hartree]    =          0.239917770760E+01   0.242900873981E+01
 KINETIC ENERGY [hartree]     =          0.245929480633E+01   0.242940980513E+01
 TEMPERATURE [K]              =                     575.887              568.888
 *******************************************************************************

 FOBSH| *** OFF-DIAGONAL GRADIENT CALCULATION
 FOBSH| Put former active state           3 in new active state           3
 RANDOM_NUMBER_HOPPING_PROBA  0.29876304793700437     
 FOBSH| ACTIVE STATE =            3

 ENERGY| Total FORCE_EVAL ( MIXED ) energy (a.u.):             2.368440101970076

 FOBSH| CASE1: no hop and no trivial crossing
 ENTER integrator.F
 STEP NUMBER                  =           49
 CPU TIME [s]                 =   0.21887884847819805       0.20983783672658762     

 *******************************************************************************
 ENSEMBLE TYPE                =                                              NVE
 STEP NUMBER                  =                                               49
[...]
 KINETIC ENERGY [hartree]     =          0.224386363184E+01   0.243060187377E+01
 TEMPERATURE [K]              =                     525.440              569.168
 *******************************************************************************

 FOBSH| *** OFF-DIAGONAL GRADIENT CALCULATION
 FOBSH| Put former active state           1 in new active state           1
 RANDOM_NUMBER_HOPPING_PROBA  0.49175587442825131     
 FOBSH| ACTIVE STATE =            1

 ENERGY| Total FORCE_EVAL ( MIXED ) energy (a.u.):             2.592223968133369

 FOBSH| CASE1: no hop and no trivial crossing
 ENTER integrator.F
 STEP NUMBER                  =          991
 CPU TIME [s]                 =    4.0180014446377754E-002   6.3089813057833316E-002

 *******************************************************************************
 ENSEMBLE TYPE                =                                              NVE
 STEP NUMBER                  =                                              991
 TIME [fs]                    =                                        99.100000
 CONSERVED QUANTITY [hartree] =                               0.485854653437E+01

                                              INSTANTANEOUS             AVERAGES
 CPU TIME [s]                 =                        0.04                 0.06
 ENERGY DRIFT PER ATOM [K]    =          0.668628645111E-01   0.123357566276E-01
 POTENTIAL ENERGY[hartree]    =          0.259222396813E+01   0.242795500023E+01
 KINETIC ENERGY [hartree]     =          0.226632256624E+01   0.243043610252E+01
 TEMPERATURE [K]              =                     530.699              569.129
 *******************************************************************************

 FOBSH| *** OFF-DIAGONAL GRADIENT CALCULATION
 FOBSH| Put former active state           1 in new active state           1
 RANDOM_NUMBER_HOPPING_PROBA  0.61903599085274297     
 FOBSH| ACTIVE STATE =            1

 ENERGY| Total FORCE_EVAL ( MIXED ) energy (a.u.):             2.568121599507126

 FOBSH| CASE1: no hop and no trivial crossing
 ENTER integrator.F
 STEP NUMBER                  =          992
 CPU TIME [s]                 =    4.0168890729546547E-002   6.3066707289357218E-002

 *******************************************************************************
 ENSEMBLE TYPE                =                                              NVE
 STEP NUMBER                  =                                              992
 TIME [fs]                    =                                        99.200000
 CONSERVED QUANTITY [hartree] =                               0.485852898668E+01

                                              INSTANTANEOUS             AVERAGES
 CPU TIME [s]                 =                        0.04                 0.06
 ENERGY DRIFT PER ATOM [K]    =          0.607060702354E-01   0.123845170244E-01
 POTENTIAL ENERGY[hartree]    =          0.256812159951E+01   0.242809629720E+01
 KINETIC ENERGY [hartree]     =          0.229040738718E+01   0.243029494454E+01
 TEMPERATURE [K]              =                     536.339              569.096
 *******************************************************************************

 FOBSH| *** OFF-DIAGONAL GRADIENT CALCULATION
 FOBSH| Put former active state           1 in new active state           1
 RANDOM_NUMBER_HOPPING_PROBA  0.74567560434819335     
 FOBSH| ACTIVE STATE =            1

 ENERGY| Total FORCE_EVAL ( MIXED ) energy (a.u.):             2.542672728663987

 FOBSH| CASE1: no hop and no trivial crossing
 ENTER integrator.F
 STEP NUMBER                  =          993
 CPU TIME [s]                 =    4.0083821862936020E-002   6.3043562389632726E-002

 *******************************************************************************
 ENSEMBLE TYPE                =                                              NVE
 STEP NUMBER                  =                                              993
 TIME [fs]                    =                                        99.300000
 CONSERVED QUANTITY [hartree] =                               0.485851050632E+01

                                              INSTANTANEOUS             AVERAGES
 CPU TIME [s]                 =                        0.04                 0.06
 ENERGY DRIFT PER ATOM [K]    =          0.542220354755E-01   0.124266494700E-01
 POTENTIAL ENERGY[hartree]    =          0.254267272866E+01   0.242821168132E+01
 KINETIC ENERGY [hartree]     =          0.231583777765E+01   0.243017968053E+01
 TEMPERATURE [K]              =                     542.294              569.069
 *******************************************************************************

 FOBSH| *** OFF-DIAGONAL GRADIENT CALCULATION
 FOBSH| Put former active state           1 in new active state           1
 RANDOM_NUMBER_HOPPING_PROBA  0.93425822940788050     
 FOBSH| ACTIVE STATE =            1

 ENERGY| Total FORCE_EVAL ( MIXED ) energy (a.u.):             2.516172840379775

 FOBSH| CASE1: no hop and no trivial crossing
 ENTER integrator.F
 STEP NUMBER                  =          994
 CPU TIME [s]                 =    3.9930470287799835E-002   6.3020309781884415E-002

 *******************************************************************************
 ENSEMBLE TYPE                =                                              NVE
 STEP NUMBER                  =                                              994
 TIME [fs]                    =                                        99.400000
 CONSERVED QUANTITY [hartree] =                               0.485849131136E+01

                                              INSTANTANEOUS             AVERAGES
 CPU TIME [s]                 =                        0.04                 0.06
 ENERGY DRIFT PER ATOM [K]    =          0.474872801873E-01   0.124619217343E-01
 POTENTIAL ENERGY[hartree]    =          0.251617284038E+01   0.242830017344E+01
 KINETIC ENERGY [hartree]     =          0.234231847098E+01   0.243009128897E+01
 TEMPERATURE [K]              =                     548.494              569.048
 *******************************************************************************

 FOBSH| *** OFF-DIAGONAL GRADIENT CALCULATION
 FOBSH| Put former active state           1 in new active state           1
 RANDOM_NUMBER_HOPPING_PROBA  0.30823818084633486     
 FOBSH| ACTIVE STATE =            1

 ENERGY| Total FORCE_EVAL ( MIXED ) energy (a.u.):             2.488928732523184

 FOBSH| CASE1: no hop and no trivial crossing
 ENTER integrator.F
 STEP NUMBER                  =          995
 CPU TIME [s]                 =    5.3851164877414703E-002   6.3011094560874906E-002

 *******************************************************************************
 ENSEMBLE TYPE                =                                              NVE
 STEP NUMBER                  =                                              995
 TIME [fs]                    =                                        99.500000
 CONSERVED QUANTITY [hartree] =                               0.485847163129E+01

                                              INSTANTANEOUS             AVERAGES
 CPU TIME [s]                 =                        0.05                 0.06
 ENERGY DRIFT PER ATOM [K]    =          0.405823152646E-01   0.124901834363E-01
 POTENTIAL ENERGY[hartree]    =          0.248892873252E+01   0.242836110666E+01
 KINETIC ENERGY [hartree]     =          0.236954289876E+01   0.243003043631E+01
 TEMPERATURE [K]              =                     554.870              569.034
 *******************************************************************************

 FOBSH| *** OFF-DIAGONAL GRADIENT CALCULATION
 FOBSH| Put former active state           1 in new active state           1
 RANDOM_NUMBER_HOPPING_PROBA  0.38481499721331514     
 FOBSH| ACTIVE STATE =            1

 ENERGY| Total FORCE_EVAL ( MIXED ) energy (a.u.):             2.461254738794054

 FOBSH| CASE1: no hop and no trivial crossing
 ENTER integrator.F
 STEP NUMBER                  =          996
 CPU TIME [s]                 =    4.0297264233231544E-002   6.2988289510345130E-002

 *******************************************************************************
 ENSEMBLE TYPE                =                                              NVE
 STEP NUMBER                  =                                              996
 TIME [fs]                    =                                        99.600000
 CONSERVED QUANTITY [hartree] =                               0.485845172037E+01

                                              INSTANTANEOUS             AVERAGES
 CPU TIME [s]                 =                        0.04                 0.06
 ENERGY DRIFT PER ATOM [K]    =          0.335963551966E-01   0.125113743718E-01
 POTENTIAL ENERGY[hartree]    =          0.246125473879E+01   0.242839413240E+01
 KINETIC ENERGY [hartree]     =          0.239719698157E+01   0.242999747100E+01
 TEMPERATURE [K]              =                     561.345              569.026
 *******************************************************************************

 FOBSH| *** OFF-DIAGONAL GRADIENT CALCULATION
 FOBSH| Put former active state           1 in new active state           1
 RANDOM_NUMBER_HOPPING_PROBA   4.1411013718110248E-002
 FOBSH| ACTIVE STATE =            1

 ENERGY| Total FORCE_EVAL ( MIXED ) energy (a.u.):             2.433468868916041

 FOBSH| CASE1: no hop and no trivial crossing
 ENTER integrator.F
 STEP NUMBER                  =          997
 CPU TIME [s]                 =    4.0085257962346077E-002   6.2965317562954967E-002

 *******************************************************************************
 ENSEMBLE TYPE                =                                              NVE
 STEP NUMBER                  =                                              997
 TIME [fs]                    =                                        99.700000
 CONSERVED QUANTITY [hartree] =                               0.485843182060E+01

                                              INSTANTANEOUS             AVERAGES
 CPU TIME [s]                 =                        0.04                 0.06
 ENERGY DRIFT PER ATOM [K]    =          0.266143084448E-01   0.125255197420E-01
 POTENTIAL ENERGY[hartree]    =          0.243346886892E+01   0.242839922240E+01
 KINETIC ENERGY [hartree]     =          0.242496295168E+01   0.242999242133E+01
 TEMPERATURE [K]              =                     567.847              569.025
 *******************************************************************************

 FOBSH| *** OFF-DIAGONAL GRADIENT CALCULATION
 FOBSH| Put former active state           1 in new active state           1
 RANDOM_NUMBER_HOPPING_PROBA  0.63308502400333189     
 FOBSH| ACTIVE STATE =            1

 ENERGY| Total FORCE_EVAL ( MIXED ) energy (a.u.):             2.405888939032534

 FOBSH| CASE1: no hop and no trivial crossing
 ENTER integrator.F
 STEP NUMBER                  =          998
 CPU TIME [s]                 =    3.9977446198463440E-002   6.2942283623711986E-002

 *******************************************************************************
 ENSEMBLE TYPE                =                                              NVE
 STEP NUMBER                  =                                              998
 TIME [fs]                    =                                        99.800000
 CONSERVED QUANTITY [hartree] =                               0.485841216588E+01

                                              INSTANTANEOUS             AVERAGES
 CPU TIME [s]                 =                        0.04                 0.06
 ENERGY DRIFT PER ATOM [K]    =          0.197182377888E-01   0.125327268743E-01
 POTENTIAL ENERGY[hartree]    =          0.240588893903E+01   0.242837666701E+01
 KINETIC ENERGY [hartree]     =          0.245252322684E+01   0.243001499729E+01
 TEMPERATURE [K]              =                     574.301              569.030
 *******************************************************************************

 FOBSH| *** OFF-DIAGONAL GRADIENT CALCULATION
 FOBSH| Put former active state           1 in new active state           1
 RANDOM_NUMBER_HOPPING_PROBA   4.4566311237819671E-002
 FOBSH| ACTIVE STATE =            1

 ENERGY| Total FORCE_EVAL ( MIXED ) energy (a.u.):             2.378828680160459

 FOBSH| CASE1: no hop and no trivial crossing
 ENTER integrator.F
 STEP NUMBER                  =          999
 CPU TIME [s]                 =    3.9920119568705559E-002   6.2919238414447715E-002

 *******************************************************************************
 ENSEMBLE TYPE                =                                              NVE
 STEP NUMBER                  =                                              999
 TIME [fs]                    =                                        99.900000
 CONSERVED QUANTITY [hartree] =                               0.485839300425E+01

                                              INSTANTANEOUS             AVERAGES
 CPU TIME [s]                 =                        0.04                 0.06
 ENERGY DRIFT PER ATOM [K]    =          0.129951757473E-01   0.125331897861E-01
 POTENTIAL ENERGY[hartree]    =          0.237882868016E+01   0.242832706942E+01
 KINETIC ENERGY [hartree]     =          0.247956432409E+01   0.243006459621E+01
 TEMPERATURE [K]              =                     580.633              569.042
 *******************************************************************************

 FOBSH| *** OFF-DIAGONAL GRADIENT CALCULATION
 FOBSH| Put former active state           1 in new active state           1
 RANDOM_NUMBER_HOPPING_PROBA   2.0464615723267215E-002
 FOBSH| ACTIVE STATE =            1

 ENERGY| Total FORCE_EVAL ( MIXED ) energy (a.u.):             2.352593906696014

 FOBSH| CASE1: no hop and no trivial crossing
 ENTER integrator.F
 STEP NUMBER                  =         1000
 CPU TIME [s]                 =    4.0294077247381210E-002   6.2896613253280650E-002

 *******************************************************************************
 ENSEMBLE TYPE                =                                              NVE
 STEP NUMBER                  =                                             1000
 TIME [fs]                    =                                       100.000000
 CONSERVED QUANTITY [hartree] =                               0.485837456330E+01

                                              INSTANTANEOUS             AVERAGES
 CPU TIME [s]                 =                        0.04                 0.06
 ENERGY DRIFT PER ATOM [K]    =          0.652497248343E-02   0.125271815688E-01
 POTENTIAL ENERGY[hartree]    =          0.235259390670E+01   0.242825133626E+01
 KINETIC ENERGY [hartree]     =          0.250578065661E+01   0.243014031227E+01
 TEMPERATURE [K]              =                     586.772              569.059
 *******************************************************************************


 -------------------------------------------------------------------------------
 -                                                                             -
 -                                DBCSR STATISTICS                             -
 -                                                                             -
 -------------------------------------------------------------------------------
 COUNTER                                    TOTAL       BLAS       SMM       ACC
 flops total                                    0       0.0%      0.0%      0.0%
 flops max/rank                                 0       0.0%      0.0%      0.0%
 matmuls inhomo. stacks                         0       0.0%      0.0%      0.0%
 matmuls total                                  0       0.0%      0.0%      0.0%
 number of processed stacks                     0       0.0%      0.0%      0.0%
 average stack size                                     0.0       0.0       0.0
 marketing flops                     0.000000E+00
 -------------------------------------------------------------------------------

 MEMORY| Estimated peak process memory [MiB]                                 104

 -------------------------------------------------------------------------------
 -                                                                             -
 -                           R E F E R E N C E S                               -
 -                                                                             -
 -------------------------------------------------------------------------------
 
 CP2K version 4.0 (Development Version), the CP2K developers group (2015).
 CP2K is freely available from https://www.cp2k.org/ .

 Borstnik, U; VandeVondele, J; Weber, V; Hutter, J. 
 PARALLEL COMPUTING, 40 (5-6), 47-58 (2014). 
 Sparse matrix multiplication: The distributed block-compressed sparse
 row library.
 http://dx.doi.org/10.1016/j.parco.2014.03.012


 Hutter, J; Iannuzzi, M; Schiffmann, F; VandeVondele, J. 
 WILEY INTERDISCIPLINARY REVIEWS-COMPUTATIONAL MOLECULAR SCIENCE, 4 (1), 15-25 (2014). 
 CP2K: atomistic simulations of condensed matter systems.
 http://dx.doi.org/10.1002/wcms.1159


 Frigo, M; Johnson, SG. 
 PROCEEDINGS OF THE IEEE, 93 (2), 216-231 (2005). 
 The design and implementation of FFTW3.
 http://dx.doi.org/10.1109/JPROC.2004.840301


 -------------------------------------------------------------------------------
 -                                                                             -
 -                                T I M I N G                                  -
 -                                                                             -
 -------------------------------------------------------------------------------
 SUBROUTINE                       CALLS  ASD         SELF TIME        TOTAL TIME
                                MAXIMUM       AVERAGE  MAXIMUM  AVERAGE  MAXIMUM
 CP2K                                 1  1.0    0.011    0.011   72.960   72.960
 qs_mol_dyn_low                       1  2.0    0.230    0.230   62.942   62.942
 velocity_verlet                   1000  3.0   43.043   43.043   60.165   60.165
 fist_calc_energy_force            2056  4.0    0.149    0.149   17.407   17.407
 force_nonbond                     1028  5.0   13.585   13.585   13.585   13.585
 topology_control                     3  4.0    0.005    0.005    9.290    9.290
 connectivity_control                 3  5.0    0.024    0.024    8.920    8.920
 read_topology_psf                  150  6.0    3.933    3.933    8.875    8.875
 fist_create_force_env                2  2.0    0.000    0.000    6.912    6.912
 fist_init                            2  3.0    0.001    0.001    6.912    6.912
 parser_read_line                 12762  7.2    0.236    0.236    5.669    5.669
 parser_read_line_low               171  7.9    5.431    5.431    5.433    5.433
 mixed_create_force_env               1  2.0    0.001    0.001    3.085    3.085
 mixed_init                           1  3.0    0.000    0.000    3.085    3.085
 force_intra_control               2056  5.0    2.500    2.500    2.500    2.500
 md_output                         1000  3.0    0.002    0.002    2.161    2.161
 md_write_output                   1001  4.0    1.958    1.958    2.050    2.050
 -------------------------------------------------------------------------------

 The number of warnings for this run is : 1
 
 -------------------------------------------------------------------------------
  **** **** ******  **  PROGRAM ENDED AT                 2021-04-29 14:24:43.310
 ***** ** ***  *** **   PROGRAM RAN ON                   bulstake.phys.ucl.ac.uk
 **    ****   ******    PROGRAM RAN BY                                 sgiannini
 ***** **    ** ** **   PROGRAM PROCESS ID                                 12987
  **** **  *******  **  PROGRAM STOPPED IN /scratch/sgiannini/REG_TEST_MERGING/3
                                           7-071a0540f1_code_extension_V3_ADJ/ru
                                           n-fssh-LONG
