685
 i =   180000, time =    90000.000, E =         0.5992330265
CP   -10.1322018770  -4.3963614198  -86.2125216652
H   -10.6505668217  -5.1748712308  -86.5533299249
H   -9.5997537834  -3.6643330986  -86.8916951164
CP   -9.8631241025  -4.6000738161  -84.8984811969
H   -9.0388811157  -4.0522518863  -84.4876961595
H   -10.2538009888  -5.4884703381  -84.3455022406
CP   -6.1297527872  -6.0011858072  -86.6839549170
H   -5.6432450721  -6.2991562641  -87.6296305869
H   -5.7587445973  -6.4114877639  -85.7812657780
CP   -6.7524751478  -4.7938061184  -86.8157435567
H   -7.0742703350  -4.2578125483  -85.9073034897
H   -6.9390547518  -4.4748261525  -87.7403532116
CP   -2.6429644379  -7.2659723793  -86.4115090830
H   -3.2875804129  -8.0504923403  -86.2456384053
H   -2.1156450010  -7.2581307468  -87.3114375139
CP   -2.2414798278  -6.4322362805  -85.5280362957
H   -1.4357799913  -5.6192439449  -85.6229298534
H   -2.7557576187  -6.3392513194  -84.6790495988
CP   0.8068823372  -10.1714163442  -86.6068780269
H   1.5989135151  -10.3318901031  -85.9229074034
H   0.9580064441  -10.6484810822  -87.5505574093
CP   0.0277323585  -9.1198802841  -86.4878238417
H   -0.7035716564  -8.8116049442  -87.2211584573
H   0.1470250927  -8.6234797193  -85.5967186947
CP   5.0103625754  -10.9022301791  -86.6783546223
H   5.8218118537  -11.0992645722  -86.0039544137
H   4.6023338391  -11.7329197645  -87.2737151592
CP   4.1990973729  -9.8874300807  -86.4928955066
H   3.4684374355  -10.0473750898  -87.2796150538
H   4.6097714713  -8.9433801594  -86.0771184382
CP   7.8573166316  -13.2742572365  -86.8335856806
H   7.6144276894  -13.6889335144  -85.8922132267
H   7.4877539729  -13.8299630310  -87.6336970419
CP   8.2940932268  -12.1417173741  -87.2901454014
H   8.1546994948  -12.0898039236  -88.5118655570
H   8.7763548783  -11.4486566663  -86.6885538197
CP   11.9353944687  -13.8575151043  -86.2579829036
H   12.5203046615  -13.0720716390  -85.8991068968
H   11.8069751622  -14.5887125921  -85.5530155349
CP   11.8309515397  -13.9099949364  -87.5943629247
H   11.6218589112  -14.8204167553  -88.1264793212
H   12.0563928994  -13.0378885048  -88.2712641018
CP   16.2182476076  -15.5501632088  -86.9937099293
H   17.2661344564  -15.4466079341  -87.1709898934
H   15.6426892387  -16.2060281876  -87.6042504011
CP   15.5520292216  -14.8120642430  -86.1059998217
H   14.5512405499  -14.6616837674  -85.9319397777
H   16.1730183827  -14.1219165699  -85.4865865307
CP   19.8297007313  -14.9471043267  -89.1542793911
H   19.5844352466  -14.8396704065  -90.2820326331
H   20.2618281501  -14.1528937974  -88.7348287788
CP   19.6089435537  -16.0227183700  -88.5278922015
H   19.9841164677  -16.0558387138  -87.4946676266
H   19.4393229666  -16.9170216762  -89.0475172805
CP   23.3429972240  -17.6661358411  -88.9557159646
H   22.5195245484  -17.5607676779  -89.5656782450
H   24.2200189217  -17.8779146507  -89.4961941423
CP   23.4175521408  -17.0355519573  -87.8724247349
H   24.2546665888  -16.9010449286  -87.2676449166
H   22.4141331266  -16.7368434896  -87.5237782177
CP   27.2668637031  -18.9957376517  -88.8383522716
H   27.8060793742  -19.8192783879  -89.3082087380
H   26.8086156539  -18.8657754212  -87.8569699371
CP   26.7810912824  -18.2337309275  -89.6979709641
H   26.2223688736  -17.3357655455  -89.1834074796
H   27.2912638502  -18.2934745014  -90.6841809237
CP   31.2858703735  -19.8914968687  -88.2246344937
H   32.2648041776  -20.2468786816  -87.7596549088
H   31.1042485319  -18.8711158617  -88.6068302706
CP   30.5069086059  -20.8870414182  -88.4959356506
H   30.5960689304  -21.8737131301  -88.0316497575
H   29.7088780196  -20.5380319314  -89.0336042125
CP   33.2454253935  -22.9328114182  -89.5026701116
H   32.2623400535  -23.3488574413  -89.8759772628
H   33.3283415746  -21.7765014315  -89.2918705784
CP   34.4289810962  -23.6670403295  -89.3074756365
H   35.2399560380  -23.2237336681  -88.6461864992
H   34.3835728678  -24.6010403918  -89.5985244250
CP   37.1793388082  -23.9743276975  -90.8581989247
H   37.0631935850  -23.0030881525  -90.1691077797
H   36.9097441342  -23.8983726987  -91.9619188584
CP   37.7631604066  -25.1223548765  -90.5821781223
H   37.7054367665  -25.9676890258  -91.2373689267
H   38.0716003396  -25.3615903561  -89.5045315092
CP   41.4255302928  -25.0389493404  -92.0494213104
H   40.7841778649  -24.2936588480  -92.4379982222
H   41.4882965706  -26.0117555024  -92.4619975094
CP   41.8466232180  -24.6876933371  -90.8915300161
H   42.3860368790  -25.4346192770  -90.2435784497
H   41.6277318499  -23.6401929232  -90.6140137760
CP   44.9731084166  -26.9174326279  -93.4295657567
H   44.3899717746  -26.1498104738  -93.7071244179
H   45.6192355842  -27.4251394052  -94.1085659193
CP   44.7382785516  -27.4495840033  -92.1918908577
H   45.2036331117  -28.4462802648  -92.0207963894
H   44.3222473211  -26.8545120141  -91.4576693281
CP   49.0546555132  -27.5968979293  -91.4926770559
H   49.4995188100  -28.0888753876  -90.6978366719
H   48.9110364100  -26.5300011211  -91.5305284183
CP   48.8997471529  -28.2102253330  -92.6577945675
H   48.6370183992  -27.6761170260  -93.6360069389
H   49.4011404141  -29.2006827569  -92.8191889767
CP   52.1838175580  -29.9696652879  -93.3487597499
H   52.1189090431  -29.6436673708  -94.5103899066
H   51.6819893972  -30.8478211972  -92.9743638538
CP   53.0422757293  -29.3180163310  -92.5994147343
H   53.2954163556  -29.8773383939  -91.7844037474
H   53.5988198115  -28.4787974800  -93.0160565256
CP   55.9814840706  -33.0424227217  -93.2106841744
H   55.2442142411  -33.8539111264  -93.0955330420
H   57.0664641179  -32.9576616137  -93.4464384818
CP   55.5795209106  -31.9841584945  -92.5624237753
H   56.1834008211  -30.9965580147  -92.4335404780
H   54.5685586799  -32.0217158546  -92.1010227816
CP   59.6629160385  -32.4340189986  -94.1517363981
H   59.5048043726  -31.3776458581  -94.0482802857
H   58.8678293875  -33.0275174671  -94.5213210268
CP   60.5745530920  -32.9824798981  -93.3660321312
H   60.8000215897  -34.0808645562  -93.1498436601
H   61.1455219512  -32.3105322497  -92.7318974852
CP   62.5736090723  -36.0870621118  -94.1906933778
H   61.8142408942  -36.4195989355  -93.6308060546
H   62.8274067000  -36.8217990724  -94.8667717393
CP   63.3737924797  -35.0722808673  -93.8592006292
H   64.1684377457  -34.7973568393  -94.6568837099
H   63.0088867127  -34.4313671186  -93.0134281276
CP   66.3696065574  -37.3385690427  -93.3807012951
H   65.3719215009  -36.9457477315  -93.4504989693
H   66.6900372854  -37.9421272651  -92.4927293154
CP   67.2420135163  -37.2205645583  -94.3079655088
H   68.1264188625  -37.6466455879  -94.2133187853
H   67.0550198784  -36.7229322199  -95.3031983257
CP   70.5997043972  -38.9326972155  -96.0530538943
H   71.1578368858  -39.4910918512  -95.2198797114
H   71.0817182930  -38.2773712786  -96.7489622776
CP   69.2784925586  -39.0415739905  -96.0042346356
H   68.7518195808  -38.5715345980  -96.8243022574
H   68.8183283444  -39.7305803020  -95.2865829644
CP   72.9893246535  -42.0233442907  -96.0355666460
H   73.2967470630  -41.9122019872  -94.9665640776
H   72.3131399163  -42.7901582389  -96.1855860853
CP   73.4970720211  -41.2974014189  -97.0803951119
H   73.1046398068  -41.6124124230  -97.9902357424
H   74.3078405864  -40.6339863805  -96.9586198497
CP   76.6458142441  -42.8353944853  -98.5178934488
H   76.4645223612  -42.1209497406  -99.3180384033
H   76.7020080588  -43.8688889911  -98.6384868375
CP   77.0080055304  -42.3540155365  -97.2980903693
H   77.3325644536  -43.0924501648  -96.6832397568
H   76.7725261915  -41.3035561368  -96.9763429227
CP   80.8390895023  -44.8417834403  -98.2867483079
H   80.1257711561  -45.6743983855  -97.8382329142
H   81.9159939662  -44.7442379342  -98.4000033101
CP   80.2027955812  -43.7262849105  -98.5701002073
H   80.9082476395  -42.8295153313  -98.7556751530
H   79.1273698735  -43.7527394771  -98.6501547895
CP   84.2685925161  -45.3983460762  -99.4002922735
H   84.2749369352  -45.1346081477  -100.4657830656
H   84.5657554612  -44.6656333364  -98.5315185067
CP   83.7493254440  -46.6243371359  -99.3341790894
H   83.5547406988  -47.1696859707  -98.3397750804
H   83.3564244760  -47.3133419637  -100.2072106460
CP   88.6043962082  -46.4661623082  -100.1781275742
H   89.5780087805  -45.9314205290  -100.2463795670
H   87.9427579856  -46.8849934325  -101.0421130235
CP   87.9629866453  -46.6735010635  -99.0172270682
H   87.0158370192  -47.0673213098  -98.7971136045
H   88.4167108477  -46.3509310125  -98.1400910474
CP   91.6596539464  -49.1703457664  -99.6523682525
H   91.3869996050  -48.3714022187  -100.1423746488
H   92.4746427765  -49.2865948869  -99.0338453397
CP   90.8351552068  -50.1938433157  -99.7864938047
H   91.0467736600  -51.0357326500  -99.1413567932
H   89.9286353599  -50.0905798061  -100.3455779167
CP   94.0240538649  -51.8669271833  -102.3104870060
H   93.5837997467  -50.9731449571  -102.3260097625
H   94.2583532442  -52.3449009635  -103.3304676807
CP   94.0452506278  -52.3926131675  -101.1227140415
H   94.5768546670  -53.4081659182  -100.8530538809
  H        94.0383902336      -51.6568381342     -100.4317490618
 Ne       434.2670076088     -458.3449598136      499.7378756177
 Ne       766.3466191069      619.8890878558      257.0775203653
 Ne       374.7026805496      -47.9269515547     -104.1901258302
 Ne       -51.8765240616     -328.0326073692     1002.4089197429
 Ne       -73.7989951657     -354.9733365485    -1495.8859987404
 Ne      1183.1244948367     1186.2033701417     -640.2055213177
 Ne       308.4204876339      404.6001764452     -883.9786353875
 Ne      -905.6212187055      705.6067920575      604.5732006317
 Ne       855.2737795103      664.7842277067       12.8435140291
 Ne       657.2573321255      592.1822937347     1408.1409181917
 Ne       -28.5004985237      872.7916664536    -1541.2373124731
 Ne       760.9917517895     1032.8539834035       21.3303175540
 Ne      -142.0482552926      144.7387494910      184.7835806538
 Ne      -507.7891783425    -1899.0817856331    -1088.2054040195
 Ne       367.2474313691     1697.3498004769      244.4902727591
 Ne      -991.8794723377      481.7900898128     -673.0224989097
 Ne      1167.3244543635     -492.1065733752     1334.7694000031
 Ne      -190.9634812306     1508.9409440033     -909.7422884979
 Ne      -511.4637862560     -329.4287462917     1072.6452912985
 Ne      -568.6738697832       85.4306885623      314.8976572361
 Ne       947.6680970687      331.5332388624    -1291.1662612707
 Ne      -254.0234471723    -1151.4302094291      536.6574101504
 Ne       319.6948258656     -130.3192211455    -1190.5338027489
 Ne       302.8920793402      439.2116145147     1195.1606249798
 Ne      1092.5927218050      775.9621011974      263.1067303255
 Ne      -966.1518772691    -1178.8942131144      812.5260073973
 Ne     -1211.5769468168     -747.1361785366      162.2472756066
 Ne      -300.3731876288      422.2876516281     -890.8332540921
 Ne        41.3459660478      -49.0526592888     -626.5287674025
 Ne      -464.9206349936      796.1206821175      558.0370132457
 Ne       -10.8791303240     -996.8969908046      628.4118537853
 Ne      -779.7602071735     1309.9637327440     -413.6414007503
 Ne      -493.1653486385     1136.2443123054     -462.7999898600
 Ne      -214.3544051168      362.8217387596     -662.5326007775
 Ne      1622.8378928685       47.6267063592       42.6629693712
 Ne       354.6415050624     -753.4077258924     -241.3334971508
 Ne      -262.5688409129      842.9351497438     -107.1661737614
 Ne      -245.0455059240     -207.5526031219     -350.3147357088
 Ne        74.2866260304       83.8768077559     -152.1195292547
 Ne        99.5353027026       23.0770987272     1598.1653229555
 Ne      1878.2542165770     -626.5430490666     -534.2254344997
 Ne      -242.6553749911      658.4918599101     -838.1734320101
 Ne      2033.6078666278      288.4297729501    -1285.0539696139
 Ne        37.4391949531      826.6530055345     -743.9537282049
 Ne       381.9592209731      173.3652988196    -1255.3095496151
 Ne      -642.0127616524     1008.3792802179      118.2429082564
 Ne       537.2152454089      389.0049966207       68.7942766219
 Ne       565.6623317398      226.1551190150      546.5182535615
 Ne      -907.2044510855    -1167.9894101864      451.6569233677
 Ne     -1865.2511920123     -810.5053310136      597.5213064315
 Ne      1680.9633686803     -647.8895755125      210.0093508090
 Ne      1345.6708584912     1831.4548302733      809.1776408267
 Ne       748.0321081958      802.0872118042     1982.0072131977
 Ne       256.2602005247    -1089.7902999892      532.8146390096
 Ne     -1577.0883282072      146.6833260257     -212.7533047112
 Ne       835.7245783096      318.6001094494    -1032.0478059302
 Ne      -557.1317556218     1017.5032069834     -185.2922159639
 Ne      1219.2838979609      630.5634875265     1141.1611780116
 Ne       -23.5091145480      169.3951964564       53.5444785333
 Ne       227.7612754277      177.2060194721    -1145.2854793791
 Ne     -1289.4855092795      -91.9760260679     -615.0839418314
 Ne      -875.4092733180      597.9925818051      459.5961737701
 Ne      1718.8619669212      299.9008874593     1305.5755462732
 Ne       780.0622795654       73.1633205836      162.9866087664
 Ne     -1385.4509673018     -230.6193768855     -703.0733513013
 Ne      -272.2051473620     1068.9560540491     -491.6799626580
 Ne      -776.5679351392     -738.1943832209     -274.9934982911
 Ne       512.6596246461    -1473.5936842822     -524.7581414005
 Ne       373.8679293153     -931.8635978802      411.5797164867
 Ne      -370.6958816751     -256.2845350482     -246.8426920975
 Ne     -1266.1294012591       65.9685877468      105.5947532197
 Ne      2418.4235422976    -1071.3934215785      903.2770310195
 Ne       833.6462286372      403.7198564668     -712.4923700377
 Ne      -652.5364220292     -301.8860533269      -28.6337938756
 Ne      1034.0288781513     -732.9730508370        8.1812669479
 Ne      -707.0872561157    -1548.4882332076    -1165.6894462283
 Ne      1134.4166060535    -1463.6924478281      824.1125762659
 Ne      -248.2074026623      650.7432169303    -1200.3658401269
 Ne       928.9227370342      700.8149078296      -11.2296073449
 Ne      -580.3739894532     -484.6622600293      410.2678145377
 Ne      -556.1269634477     -732.9623512432     -539.0864186685
 Ne        91.1636947058     -442.9374600648     -273.3773829153
 Ne      1244.2490084221     1057.6723119631      658.5075428232
 Ne     -1628.1566369845     -433.9560446563     -255.8955125589
 Ne      1620.3845415860     -921.4747671831     -347.4428517631
 Ne       410.6054237056      461.3430377828      262.3542736019
 Ne      -345.7422338036     -293.9036750124     -401.2522491974
 Ne       189.2518250646      930.4859445612     -512.6531613197
 Ne       531.1053748377    -1491.3661588892    -1582.5898446607
 Ne       311.8928743187     -702.5719557207       48.5551294723
 Ne      -280.8216772190     -831.0450455852      -89.3429292793
 Ne      -307.9261591559      279.6964971491      112.7018694475
 Ne       973.6769915654      405.5538107834      926.4755240048
 Ne      -395.2459984658      372.3112234042     -594.9113565016
 Ne       -47.2410699537      -95.6437944499      304.2994803810
 Ne       967.7868947049     -425.5970926591    -1060.4734633885
 Ne       712.8791774944     -234.5854641501      104.5371181009
 Ne       -21.8464859892        8.7782800973     1133.0907227329
 Ne       827.9509372047      267.0280596701     -790.9412049585
 Ne      1199.1487406465       76.7233881722      490.9463731953
 Ne        -6.8562213682       26.2182462880     -342.9965939314
 Ne     -1200.3700124374      646.6980963588    -1150.2828643550
 Ne      -662.7527727631     -263.0446148684     -298.7114220138
 Ne     -1590.3254094688     1340.5539618269     -487.7305650436
 Ne      1359.0955064120     1365.2807295957    -1239.0050343454
 Ne     -1352.7959843483      331.2680288017     -266.8786364085
 Ne        34.1659346036    -1501.6601990467     -433.8927671152
 Ne       435.2877222725      443.6299935079    -2191.2933142364
 Ne      -635.3183059728     -616.7460898017     1298.6823057430
 Ne      -604.8265954837      453.7395143837      862.3439574783
 Ne      -403.0986048247    -1089.0712163939      191.2335976433
 Ne      2190.5890504035     -519.5496301561     -654.3443512769
 Ne      -190.8017244287      642.4062493567      172.5921832431
 Ne       211.5893646853      -52.1706059804      403.8200507127
 Ne       200.3802865494     -972.8352375876     -211.0585720840
 Ne       -14.4695244158      101.0392766816     2276.7069449975
 Ne       554.2869627201     1239.6153142246     1501.6937378171
 Ne      -745.6876819518     -605.7749499176    -1168.0098285574
 Ne       -15.7056174866     -287.4902723770      837.2891650709
 Ne      -209.6977883767    -1194.2984660250      103.3514484653
 Ne      -510.3247283237       36.9977289087     -166.2762250905
 Ne      -321.3550751428      519.6325726304      391.3645999494
 Ne     -1177.2303252993     -402.6297051750       87.9171896600
 Ne       897.5672427724      852.8430451716    -1524.6775063431
 Ne       102.5949625921      -69.1521460696     -567.2366123774
 Ne       749.3539028458     -774.2640992304    -1088.1881674246
 Ne     -1090.9973333556    -1272.8496995828     -848.8995936564
 Ne       899.9026113763     -997.9536089807      352.1228410421
 Ne       714.8869345762     -922.7668513619     -726.3726288862
 Ne     -1129.4864112671     -515.0763723891      137.2463779050
 Ne       387.7402272074      358.6356352714      -58.5837269651
 Ne       739.0500774952      425.8818754544     -485.3876258775
 Ne       907.4904252059     1050.8987531001     -245.0966933432
 Ne     -1180.6100026871      379.5077814252     -883.2301092338
 Ne      -973.7433215377     1347.4232797627      335.5075206067
 Ne       634.5836926414     -715.1967862103      857.0144572435
 Ne     -1309.8190138548      905.9995668123     -410.5728822182
 Ne      -762.2778753959     1951.2460712839     1539.6480576599
 Ne      -869.7033662105     1170.7850733884      122.3862716675
 Ne     -1921.8372835912     -291.2884291396      511.7440140170
 Ne      -484.0456466033     -262.4728796303      253.7774929043
 Ne       480.4433520758     1005.0982291716       61.7641239874
 Ne       -43.7888921889    -1119.7151919301      475.0846806203
 Ne       185.7790278998      -95.9130594602     -145.2509472408
 Ne        72.4311383514      415.1134112139       82.3936922307
 Ne     -1289.8310315511     -824.5381517977      326.0482708795
 Ne      -619.4675700673     -760.1447590684     -528.7726062013
 Ne       -71.0607263279     -565.8687769452      159.3833798004
 Ne       213.4553644121       29.2046805565      -42.6389534924
 Ne     -1165.1321265578     -309.9898562788      126.2583532512
 Ne      -299.8213953756     -618.7774769150      120.6847634807
 Ne       456.9674644142     -776.8812155916     -454.1118538322
 Ne       132.8952724090     -869.3180565940      -76.9281609294
 Ne      -424.4301830429       85.6485535618     -115.0450065626
 Ne       277.6263826358     1137.6838000665      150.3517848697
 Ne     -1308.2787839623     -774.7183860993      252.3572109391
 Ne       675.1785620058     1620.7904551125      755.6937391161
 Ne       876.7168059800     -590.0555838162    -1080.2463294835
 Ne      -483.5704746512      788.9568027748     1439.5880918111
 Ne        12.2015528177      742.4290487505      -35.8961638552
 Ne      -557.4515978572     -274.8011522862     -642.1123244818
 Ne     -1431.9433130742      482.2711737247      709.4215225325
 Ne       100.9825374007      547.7905147496       66.1330239707
 Ne       270.3631773101      -11.9386472036     1263.1347204836
 Ne       186.9082658689     -474.1970218892      280.9205862548
 Ne      -713.3091299257     -489.2750010157     1025.2528974163
 Ne      -595.0943747260      425.9994802291      968.9044071327
 Ne       146.0360247894     -597.6124019762     -470.9693477124
 Ne       267.8665254139     -861.5429826541      556.5343631157
 Ne      -342.3776688773       82.2585555635      666.9671912594
 Ne      2764.0251874328     -494.3700860712     1516.5139534192
 Ne       428.6856052011     -123.1652092942     -627.1281535017
 Ne      -544.4907301520     -202.3105895336     -582.7950143576
 Ne       498.1220678859    -1700.4417162670      -79.4956416721
 Ne     -1777.8287846212     -295.6754959384    -1371.3202137177
 Ne       262.3287987474    -1038.6089392313      443.2435982624
 Ne       312.9777970879      902.5923787297     1098.5474004401
 Ne      -505.8122128636     1051.1309686826      123.1785938007
 Ne      1014.7526857046     -101.6087746232      681.8124727472
 Ne       865.5513089278     -698.7116176971      769.3742379474
 Ne     -1591.9731608959      652.0045336014     -366.8631572813
 Ne       306.6272457041     -742.1530271211     -366.4622546885
 Ne      -270.4036919364      280.0805928749     -551.5792875108
 Ne       609.1117586886      151.3426139078     -476.2470192011
 Ne       257.4011538000       27.7968889034      631.0973046671
 Ne      -911.6867904692      144.2515996206     -770.5766531291
 Ne     -1153.6762112950      614.0762496746      -95.4109457298
 Ne      1373.6619914971    -2228.9757355077     -783.6109535647
 Ne       179.4198786914      234.7618283241      623.4630051326
 Ne       112.2631333843      611.9509635350     -896.6093943507
 Ne      -768.8436549884     1236.2936660410       24.6786673622
 Ne       864.6832638804      628.4797312125     -206.9563700532
 Ne      -915.3957978216      963.8021420893      964.5813877054
 Ne        23.1322641375      488.4612004725     -513.9009977645
 Ne      1006.0462864179     1241.4072519712     -850.6145114755
 Ne      -660.3621934329    -1287.8611462719     -584.8134481522
 Ne      1228.0723027511     -885.5825422959     -852.4198217368
 Ne       -22.4294482837      200.0256236703      347.8323211627
 Ne       -49.9207186515      173.6664344856     -188.7359277454
 Ne      -836.5332820567      476.1286920839     -476.2418776776
 Ne     -1635.1955513870     -502.9391439641      -68.4821724482
 Ne      -769.0217874314     -295.7059425533      478.1749953218
 Ne       635.1028583165      852.3736438118     1340.7990437634
 Ne      1017.7973646230      649.6906591713     -750.4384227439
 Ne       175.5806573275     -650.8596939043     -624.1562811574
 Ne      -472.0759186257     -532.4227540866      -19.2698451454
 Ne      -235.3463580503     -106.4397165500      -53.0228700618
 Ne       611.1521062463       22.5544142597    -1275.1318198510
 Ne      -556.7247561730     -594.6979735902    -1097.4728771090
 Ne      1003.5269428472     -570.7954774384      801.4042062471
 Ne     -1231.6795023886      964.8380184330     1274.3895526461
 Ne      -222.2634583127      241.1214615247     2203.5647819263
 Ne       987.5537445105      574.4070158878     1214.7840481463
 Ne      1155.2524176439      693.7097763365     -297.6277171798
 Ne      1330.5886872126      794.4410183792    -2046.0269068881
 Ne      -567.1097545048     -109.9053679507     1431.3216090856
 Ne      -163.8492287325      440.8996174935    -1090.7740036374
 Ne       255.0746707561     -573.7959047900    -1357.5820452188
 Ne      1332.2975196178     -483.2723924419     -270.5845772616
 Ne      -128.8531075424     1211.5534528304    -1136.4137969575
 Ne         7.2363727251      725.9577432346      195.3462236591
 Ne       683.6360870349      232.6021008224      289.9802728635
 Ne      1571.9431624673      -99.2660038503     1095.2821422526
 Ne      1667.2847977660      -43.8680872180    -1094.5662763144
 Ne      -457.9257523678      255.4698981425    -1401.8269366347
 Ne       668.5027203560     1011.9693361661      584.4385078914
 Ne       -79.4304689570     -133.1400268600     -176.9123123821
 Ne      1304.1618922986     -436.8125767165     1376.1886917869
 Ne     -1567.2356399495     -264.3418335840     -350.9714837189
 Ne     -1268.6280969290      823.9607865249     1611.6563902846
 Ne       227.7768837546      154.5999830454     -195.4259935080
 Ne       936.2578730105      615.7146780793      627.8071603073
 Ne     -1155.5653489225     1031.3225466770     1875.5932404158
 Ne       423.0038556543     -750.5492410463     -102.2485242926
 Ne       612.9868606599     -991.3054900313      811.9335142087
 Ne      -406.3917868668     -705.6867144921     -700.8044742467
 Ne      1089.0492549567      410.6912705249      -15.0575510472
 Ne       216.7613119005       16.0316032972     -225.8248200073
 Ne      -311.9804664169     -819.6812784513       31.6540158029
 Ne       -88.5993457313     -161.5971043167     -149.6655121770
 Ne       926.3805656683      604.3310962010      487.2264491134
 Ne      -520.5054215450     -315.0417725528      136.5786674520
 Ne       134.1969823932     -341.1460884621      565.1385350762
 Ne      -673.6738864640    -1072.6380348962      318.4749239759
 Ne       909.2705695877     1287.5695814645     -298.8077246602
 Ne       711.5570770881    -1127.8266552942       91.1839598407
 Ne      -349.9269258866    -1651.4396608824      185.3181174187
 Ne      1317.2872455760     -480.2110667292     1113.3312296331
 Ne      -971.6578271818      187.6161007520     1787.6502401291
 Ne     -1394.0898459498      170.6156244214       -9.7907372482
 Ne       420.1588886731      -39.6372741114    -1204.4662493271
 Ne      1124.2919599474     1220.1117247536    -1065.8954359530
 Ne       439.7485541745     1457.3990809281      517.1676214612
 Ne     -1107.1066098120     -533.6423175760     -677.9552894566
 Ne      -124.9085932127    -2155.3594295935      -27.2600213099
 Ne       239.5922054129     2062.6111657295      616.2715881133
 Ne      -312.9349022705      360.4645126309     -639.0881499497
 Ne      2409.8423240143        9.2639735360    -1295.2729028850
 Ne       452.6647017428       44.8191622254      854.1891296202
 Ne       420.2530848791     -443.2549940646    -1392.6757676309
 Ne      -677.4350071202      735.5940764185      309.1202123117
 Ne      -430.9104622636      -28.1390158341    -1578.4121462390
 Ne       357.2399507990    -1454.0156189524     2027.5392483043
 Ne       335.6324267462      364.4274689533     -563.7389937125
 Ne       -83.8719411617     -173.8810822788      739.6448795299
 Ne     -2105.2895660132      -36.0715559977     -682.2031802596
 Ne      -261.9703542841       17.3952365614     1018.6687740747
 Ne       564.7221144866     -470.4625988047      186.2707750946
 Ne       311.5308514033      569.7398336348      212.1521866379
 Ne      1073.8659958214     -321.2675074977     -875.4944369034
 Ne      1303.8062314200     -655.4217836517      419.9587976915
 Ne     -1173.2416394445      216.4118444789     -937.1659345293
 Ne       777.6531682522      725.1783099287      162.5146798605
 Ne     -2000.4574471727     -399.0015451805     -237.0128583741
 Ne      -755.0615524963      714.3143798124    -1409.4853103706
 Ne       306.5390935817      274.7417837432      221.9860976948
 Ne       279.6556007840      295.0641057655     1126.9075542894
 Ne       801.9226519511      972.1070708097      -83.4467876308
 Ne      -632.0014118881     -589.6575766088      818.5750388509
 Ne      -430.0910448888    -1768.8469765859     -878.9040602684
 Ne        -4.4260905149      740.7033196187      195.2807134247
 Ne      2512.0730350748     -234.7843190733      319.5017019526
 Ne       -97.9006577928     -813.9980035559      827.6711144516
 Ne      -380.9558535280     -850.1216627601      -11.7552308410
 Ne       976.4804953606    -1243.9962886306      165.1856378567
 Ne     -1079.8404692565     -186.7437720313     -118.6572653711
 Ne      -347.7813780431    -1049.4246687994     -727.9277621713
 Ne      -234.3418084798      565.0187224998     -365.2720231555
 Ne     -1141.9581357923     -908.0608881335    -1165.8467868757
 Ne       569.6558602766      721.7570209073     1849.4747994388
 Ne       413.6536782252     -825.2565910372     -788.1293750790
 Ne       475.5834305568     1396.9974478594     -248.5035329375
 Ne        11.3144738123      419.2785189652     1320.8407945590
 Ne      1073.0811945941      -46.2248642764    -1099.3389434588
 Ne       -40.0242012889     -764.4956275287      551.6300328637
 Ne       494.9305429805      197.8673301538      147.1805886266
 Ne      -395.6462529826     -407.6353667440      130.8512304844
 Ne     -1323.6441422531    -1046.1400810083      -47.4827904097
 Ne      -785.9735005973      905.3674978331      175.8268176401
 Ne        -9.0335792297     1488.3517694110      632.1987444940
 Ne     -1260.6769517514     -490.3955969328    -1283.9292576936
 Ne      -136.1677648824      744.9333614388      230.0626091888
 Ne       480.8413041979       77.9158591008     1220.5116732492
 Ne       587.0018428353       89.1577734256      229.2635089115
 Ne       254.2559007502     -674.6202130212     -452.8515596038
 Ne      1578.1175402134      304.0358356924     -265.9811223558
 Ne      -588.5038298516     1632.8379153612      164.3821690513
 Ne      1425.4824941024    -1619.7410655130     1467.2648022564
 Ne       667.6440309854     1820.3174291903    -1063.3107687450
 Ne      -258.9541696388     -570.5155413493      133.5480428722
 Ne      -720.1102931211     -964.3255452311      313.4315803952
 Ne     -1087.1599391592     -792.1230352197     -230.3521784592
 Ne       143.9687583959      372.9762450819       83.2685576360
 Ne       488.8469003687      530.6426343263     -552.9395886318
 Ne      -407.0235230289     1109.4124606997    -1051.2226682362
 Ne     -1454.2769242420    -1259.4885494863      891.7762290701
 Ne     -1957.1363711174      -20.7553858962      489.6539555605
 Ne      -349.3477069063     1045.5360925932      340.8314846631
 Ne      -383.5887762969     -283.6956086813      460.8481839494
 Ne      -225.3347469105      816.3709538301     -493.0560359343
 Ne       772.2953190748      686.2738418278      254.1479064655