#     Step Nr.          Time[fs]        Kin.[a.u.]          Temp[K]            Pot.[a.u.]        Cons Qty[a.u.]        UsedTime[s]
         0            0.000000         3.115708306       958.929525775         0.601257234         3.716965540         0.000000000
         1            0.100000         3.116864260       959.285296681         0.600101463         3.716965724         7.136209233
         2            0.200000         3.118082111       959.660117633         0.598883672         3.716965783         0.041940190
         3            0.300000         3.119363633       960.054535107         0.597602076         3.716965709         0.041861757
         4            0.400000         3.120708572       960.468470298         0.596256933         3.716965505         0.041832633
         5            0.500000         3.122114639       960.901219209         0.594850523         3.716965163         0.041841783
         6            0.600000         3.123577532       961.351457336         0.593387168         3.716964700         0.041886551
         7            0.700000         3.125090986       961.817257110         0.591873127         3.716964113         0.042073587
         8            0.800000         3.126646873       962.296116275         0.590316546         3.716963418         0.042057872
         9            0.900000         3.128235326       962.784998635         0.588727296         3.716962622         0.042001161
        10            1.000000         3.129844888       963.280377644         0.587116846         3.716961734         0.041707058
        11            1.100000         3.131462680       963.778289752         0.585498085         3.716960765         0.041636658
        12            1.200000         3.133074613       964.274398476         0.583885122         3.716959735         0.041463939
        13            1.300000         3.134665686       964.764087121         0.582293072         3.716958759         0.041353241
        14            1.400000         3.136219924       965.242438830         0.580737818         3.716957742         0.041412046
        15            1.500000         3.137720799       965.704367010         0.579235810         3.716956609         0.041473997
        16            1.600000         3.139151697       966.144758050         0.577803775         3.716955472         0.041495228
        17            1.700000         3.140495852       966.558452221         0.576458502         3.716954355         0.041369653
        18            1.800000         3.141736703       966.940352015         0.575216561         3.716953264         0.041208668
        19            1.900000         3.142858135       967.285498154         0.574094082         3.716952217         0.041332288
        20            2.000000         3.143844724       967.589142910         0.573106509         3.716951233         0.041267405
        21            2.100000         3.144681957       967.846820498         0.572268360         3.716950318         0.041703496
        22            2.200000         3.145356461       968.054414376         0.571593031         3.716949493         0.041414631
        23            2.300000         3.145856205       968.208221653         0.571092558         3.716948763         0.041502282
        24            2.400000         3.146170689       968.305011180         0.570777453         3.716948142         0.041738976
        25            2.500000         3.146291112       968.342074096         0.570656530         3.716947642         0.041685337
        26            2.600000         3.146210511       968.317267374         0.570736753         3.716947264         0.041874538
        27            2.700000         3.145923885       968.229051690         0.571023133         3.716947018         0.041686385
        28            2.800000         3.145428285       968.076519797         0.571518625         3.716946911         0.041684639
        29            2.900000         3.144722889       967.859418021         0.572224049         3.716946938         0.041570238
        30            3.000000         3.143809038       967.578160033         0.573138064         3.716947102         0.041600131
        31            3.100000         3.142690257       967.233829668         0.574257151         3.716947407         0.041563463
        32            3.200000         3.141372229       966.828177070         0.575575616         3.716947845         0.041290243
        33            3.300000         3.139862768       966.363606372         0.577085645         3.716948414         0.041499349
        34            3.400000         3.138171747       965.843156273         0.578777364         3.716949110         0.041398288
        35            3.500000         3.136311013       965.270473519         0.580638911         3.716949924         0.041279139
        36            3.600000         3.134294276       964.649777164         0.582656574         3.716950850         0.041309938
        37            3.700000         3.132136964       963.985815930         0.584814910         3.716951875         0.041200008
        38            3.800000         3.133808026       964.500122963         0.583144963         3.716952990         0.060345978
        39            3.900000         3.131280782       963.722306390         0.585673694         3.716954476         0.041390605
        40            4.000000         3.128674875       962.920279741         0.588281155         3.716956030         0.041475393
        41            4.100000         3.126014608       962.101522553         0.590943007         3.716957615         0.041603064
        42            4.200000         3.123324814       961.273677743         0.593634377         3.716959190         0.041436422
        43            4.300000         3.120630311       960.444383659         0.596330398         3.716960709         0.041604041
        44            4.400000         3.117955410       959.621122684         0.599006731         3.716962141         0.041738487
        45            4.500000         3.115323528       958.811101396         0.601639967         3.716963495         0.041560111
        46            4.600000         3.112756965       958.021183787         0.604207793         3.716964757         0.041505356
        47            4.700000         3.110276889       957.257884418         0.606689056         3.716965945         0.041394097
        48            4.800000         3.107903394       956.527388016         0.609063680         3.716967075         0.041386695
        49            4.900000         3.105655559       955.835565831         0.611312584         3.716968142         0.041399126
        50            5.000000         3.103551435       955.187974324         0.613417714         3.716969149         0.041461215
        51            5.100000         3.101607971       954.589829421         0.615362123         3.716970094         0.041676747
        52            5.200000         3.099840877       954.045966428         0.617130079         3.716970956         0.041641477
        53            5.300000         3.098264476       953.560793343         0.618707259         3.716971735         0.041549285
        54            5.400000         3.096891512       953.138232596         0.620080897         3.716972408         0.041508848
        55            5.500000         3.095732975       952.781666947         0.621239995         3.716972971         0.041495228
        56            5.600000         3.094797943       952.493889726         0.622175468         3.716973411         0.116498804
        57            5.700000         3.094093433       952.277060852         0.622880290         3.716973723         0.041413932
        58            5.800000         3.093624288       952.132670708         0.623349606         3.716973893         0.041375590
        59            5.900000         3.093393072       952.061509045         0.623580856         3.716973928         0.041259373
        60            6.000000         3.093400024       952.063648386         0.623573795         3.716973818         0.041460237
        61            6.100000         3.093643021       952.138436346         0.623330544         3.716973565         0.041207062
        62            6.200000         3.094117582       952.284493339         0.622855587         3.716973170         0.041696791
        63            6.300000         3.094816868       952.499714102         0.622155763         3.716972630         0.041344441
        64            6.400000         3.095731714       952.781278617         0.621240241         3.716971955         0.041212299
        65            6.500000         3.096850691       953.125669313         0.620120452         3.716971144         0.041151887
        66            6.600000         3.098160188       953.528696527         0.618810019         3.716970207         0.041214674
        67            6.700000         3.099644508       953.985529379         0.617324642         3.716969150         0.041327679
        68            6.800000         3.101285994       954.490733703         0.615681988         3.716967982         0.041165715
        69            6.900000         3.103065180       955.038318407         0.613901533         3.716966713         0.041070801
        70            7.000000         3.104960956       955.621786107         0.612004400         3.716965355         0.041331310
        71            7.100000         3.106950760       956.234193133         0.610013162         3.716963922         0.041351564
        72            7.200000         3.109010791       956.868214410         0.607951635         3.716962427         0.041456955
        73            7.300000         3.111116252       957.516217491         0.605844632         3.716960884         0.041117664
        74            7.400000         3.113241594       958.170339315         0.603717718         3.716959312         0.041097480
        75            7.500000         3.115360786       958.822568528         0.601596941         3.716957727         0.041250154
        76            7.600000         3.117447605       959.464833992         0.599508543         3.716956147         0.041375520
        77            7.700000         3.119475925       960.089095458         0.597478666         3.716954591         0.041321252
        78            7.800000         3.121420034       960.687438885         0.595533045         3.716953080         0.041202243
        79            7.900000         3.123254931       961.252169801         0.593696701         3.716951633         0.041087563
        80            8.000000         3.124956634       961.775907246         0.591993632         3.716950266         0.041050057
        81            8.100000         3.126502483       962.251677041         0.590446515         3.716948998         0.040927625
        82            8.200000         3.127871428       962.673000755         0.589076420         3.716947847         0.041033296
        83            8.300000         3.129044297       963.033977688         0.587902532         3.716946829         0.040865257
        84            8.400000         3.130004047       963.329362443         0.586941908         3.716945955         0.040901434
        85            8.500000         3.130735993       963.554635378         0.586209246         3.716945239         0.040891867
        86            8.600000         3.131227998       963.706061050         0.585716693         3.716944691         0.040932514
        87            8.700000         3.131470630       963.780736409         0.585473691         3.716944320         0.041011086
        88            8.800000         3.131457287       963.776629717         0.585486843         3.716944129         0.040817205
        89            8.900000         3.131184283       963.692606831         0.585759837         3.716944120         0.040803447
        90            9.000000         3.130650895       963.528444442         0.586293399         3.716944294         0.040710208
        91            9.100000         3.129859352       963.284829289         0.587085295         3.716944647         0.040624932
        92            9.200000         3.128814792       962.963342355         0.588130382         3.716945174         0.040866304
        93            9.300000         3.127525182       962.566435808         0.589420688         3.716945870         0.040773624
        94            9.400000         3.126001222       962.097402763         0.590945504         3.716946726         0.040839415
        95            9.500000         3.124256200       961.560332751         0.592691530         3.716947730         0.041266847
        96            9.600000         3.122305811       960.960056754         0.594643054         3.716948865         0.040942571
        97            9.700000         3.120167957       960.302083814         0.596782165         3.716950122         0.041031480
        98            9.800000         3.117862501       959.592527588         0.599088982         3.716951482         0.041213906
        99            9.900000         3.115411009       958.838025753         0.601541917         3.716952926         0.041194490
       100           10.000000         3.112836461       958.045650653         0.604117975         3.716954436         0.041099505
       101           10.100000         3.110162966       957.222822272         0.606793029         3.716955995         0.043208095
       102           10.200000         3.107415481       956.377221661         0.609542104         3.716957585         0.040980426
       103           10.300000         3.104619504       955.516696490         0.612339683         3.716959186         0.041033924
       104           10.400000         3.101800765       954.649165989         0.615160014         3.716960778         0.041258954
       105           10.500000         3.098984922       953.782526769         0.617977421         3.716962343         0.041170185
       106           10.600000         3.096197257       952.924560001         0.620766605         3.716963862         0.041252459
       107           10.700000         3.093462385       952.082841489         0.623502933         3.716965318         0.041245055
       108           10.800000         3.090803964       951.264652547         0.626162733         3.716966697         0.041158592
       109           10.900000         3.088244436       950.476900117         0.628723544         3.716967980         0.041107467
       110           11.000000         3.085804798       949.726046319         0.631164360         3.716969158         0.041132751
       111           11.100000         3.083504377       949.018039914         0.633465838         3.716970215         0.041135893
       112           11.200000         3.081360637       948.358255497         0.635610507         3.716971143         0.040896406
       113           11.300000         3.079389002       947.751440424         0.637582931         3.716971933         0.040964780
       114           11.400000         3.077602717       947.201670871         0.639369859         3.716972576         0.041028128
       115           11.500000         3.076012732       946.712317241         0.640960337         3.716973069         0.040900387
       116           11.600000         3.074627620       946.286017720         0.642345790         3.716973410         0.041264262
       117           11.700000         3.073453523       945.924662892         0.643520070         3.716973594         0.041075270
       118           11.800000         3.072494134       945.629389332         0.644479490         3.716973624         0.041134636
       119           11.900000         3.071750707       945.400582675         0.645222797         3.716973504         0.116639604
       120           12.000000         3.071222101       945.237892253         0.645751138         3.716973238         0.041178916
       121           12.100000         3.070904859       945.140253996         0.646067975         3.716972834         0.041074153
       122           12.200000         3.070793310       945.105922182         0.646178987         3.716972297         0.041005359
       123           12.300000         3.070879696       945.132509413         0.646091945         3.716971640         0.041150629
       124           12.400000         3.071154329       945.217034045         0.645816545         3.716970874         0.041161874
       125           12.500000         3.071605768       945.355974690         0.645364241         3.716970010         0.041110750
       126           12.600000         3.072221020       945.545332144         0.644748042         3.716969062         0.041346257
       127           12.700000         3.072985753       945.780696129         0.643982292         3.716968045         0.041386065
       128           12.800000         3.073884533       946.057315835         0.643082442         3.716966975         0.041265100
       129           12.900000         3.074901062       946.370175552         0.642064804         3.716965866         0.041364206
       130           13.000000         3.076018434       946.714072018         0.640946302         3.716964736         0.041186388
       131           13.100000         3.077219389       947.083693198         0.639744211         3.716963601         0.041301488
       132           13.200000         3.078486576       947.473698300         0.638475901         3.716962476         0.041197493
       133           13.300000         3.079802802       947.878796707         0.637158576         3.716961378         0.041327818
       134           13.400000         3.081151293       948.293825277         0.635809030         3.716960323         0.041163620
       135           13.500000         3.082515929       948.713822875         0.634443392         3.716959322         0.041321043
       136           13.600000         3.083881479       949.134101425         0.633076914         3.716958392         0.041278789
       137           13.700000         3.085233812       949.550312502         0.631723733         3.716957545         0.041419241
       138           13.800000         3.086560102       949.958508286         0.630396688         3.716956790         0.041299951
       139           13.900000         3.087849001       950.355195877         0.629107139         3.716956140         0.041847999
       140           14.000000         3.089090791       950.737384998         0.627864809         3.716955601         0.041272992
       141           14.100000         3.090277523       951.102628361         0.626677657         3.716955180         0.041526936
       142           14.200000         3.091403111       951.449053432         0.625551772         3.716954883         0.041178147
       143           14.300000         3.092463413       951.775385521         0.624491298         3.716954712         0.041258326
       144           14.400000         3.093456279       952.080962231         0.623498388         3.716954667         0.041215861
       145           14.500000         3.094381563       952.365739171         0.622573187         3.716954749         0.041449971
       146           14.600000         3.095241116       952.630285991         0.621713841         3.716954956         0.041250084
       147           14.700000         3.096038741       952.875773238         0.620916541         3.716955282         0.041327329
       148           14.800000         3.096780125       953.103950911         0.620175596         3.716955721         0.041123043
       149           14.900000         3.097472740       953.317118916         0.619483525         3.716956265         0.041210553
       150           15.000000         3.098125717       953.518087281         0.618831190         3.716956907         0.041025264
       151           15.100000         3.098749694       953.710130034         0.618207942         3.716957635         0.040882158
       152           15.200000         3.099356645       953.896932959         0.617601791         3.716958436         0.040680037
       153           15.300000         3.099959688       954.082533198         0.616999608         3.716959296         0.040855758
       154           15.400000         3.100572870       954.271253598         0.616387334         3.716960204         0.040695681
       155           15.500000         3.101210938       954.467633546         0.615750205         3.716961143         0.040990273
       156           15.600000         3.101889106       954.676355141         0.615072991         3.716962097         0.040865257
       157           15.700000         3.102622800       954.902166046         0.614340251         3.716963051         0.041175354
       158           15.800000         3.103427407       955.149801899         0.613536581         3.716963988         0.041370142
       159           15.900000         3.104318014       955.423906424         0.612646879         3.716964894         0.041510174
       160           16.000000         3.105309154       955.728951946         0.611656597         3.716965751         0.041275227
       161           16.100000         3.106414552       956.069163092         0.610551992         3.716966544         0.041390326
       162           16.200000         3.107646887       956.448441944         0.609320372         3.716967259         0.041309520
       163           16.300000         3.109017554       956.870295856         0.607950329         3.716967883         0.041575546
       164           16.400000         3.110536450       957.337770296         0.606431952         3.716968402         0.041417564
       165           16.500000         3.112211769       957.853387388         0.604757038         3.716968807         0.041547470
       166           16.600000         3.114049821       958.419089478         0.602919264         3.716969085         0.041350586
       167           16.700000         3.116054876       959.036190499         0.600914353         3.716969230         0.041755947
       168           16.800000         3.118229028       959.705334792         0.598740205         3.716969233         0.041662849
       169           16.900000         3.120572088       960.426464217         0.596397004         3.716969092         0.041746099
       170           17.000000         3.123081505       961.198793871         0.593887297         3.716968802         0.041552988
       171           17.100000         3.125752315       962.020796134         0.591216045         3.716968360         0.041556828
       172           17.200000         3.128577126       962.890195193         0.588390644         3.716967769         0.041478047
       173           17.300000         3.131546121       963.803970538         0.585420910         3.716967031         0.041439635
       174           17.400000         3.134647110       964.758369766         0.582319041         3.716966151         0.041265449
       175           17.500000         3.137865593       965.748930469         0.579099540         3.716965133         0.117059632
       176           17.600000         3.141184865       966.770511454         0.575779122         3.716963987         0.040911841
       177           17.700000         3.144586151       967.817333856         0.572376573         3.716962724         0.040950952
       178           17.800000         3.148048760       968.883030028         0.568912593         3.716961353         0.040737237
       179           17.900000         3.151550276       969.960700572         0.565409612         3.716959888         0.040700570
       180           18.000000         3.155066764       971.042979025         0.561891580         3.716958344         0.048808557
       181           18.100000         3.158572999       972.122101998         0.558383736         3.716956735         0.041696791
       182           18.200000         3.162042719       973.189986682         0.554912358         3.716955077         0.041030502
       183           18.300000         3.165448887       974.238311651         0.551504501         3.716953388         0.040936356
       184           18.400000         3.168763967       975.258602204         0.548187721         3.716951687         0.040903669
       185           18.500000         3.171960217       976.242320212         0.544989775         3.716949991         0.041073385
       186           18.600000         3.175009978       977.180953116         0.541938342         3.716948320         0.040867701
       187           18.700000         3.177885972       978.066105037         0.539060720         3.716946692         0.040930000
       188           18.800000         3.180561595       978.889588592         0.536383528         3.716945124         0.040879015
       189           18.900000         3.183011214       979.643514066         0.533932418         3.716943633         0.040821676
       190           19.000000         3.185210446       980.320377349         0.531731793         3.716942239         0.040766361
       191           19.100000         3.187136438       980.913144846         0.529804519         3.716940957         0.040864628
       192           19.200000         3.188768128       981.415334269         0.528171673         3.716939802         0.040821745
       193           19.300000         3.190086489       981.821089608         0.526852298         3.716938788         0.040782983
       194           19.400000         3.191074752       982.125249806         0.525863175         3.716937927         0.040861415
       195           19.500000         3.191718605       982.323410044         0.525218627         3.716937232         0.040780190
       196           19.600000         3.192006367       982.411975341         0.524930343         3.716936710         0.040896685
       197           19.700000         3.191929137       982.388205944         0.525007232         3.716936369         0.041006896
       198           19.800000         3.191480907       982.250253056         0.525455307         3.716936214         0.040985733
       199           19.900000         3.190658649       981.997184797         0.526277599         3.716936248         0.041083861
       200           20.000000         3.189462370       981.629002769         0.527474105         3.716936475         0.041397241
       201           20.100000         3.187895127       981.146648382         0.529041765         3.716936892         0.043419226
       202           20.200000         3.185963023       980.551999774         0.530974473         3.716937496         0.040929162
       203           20.300000         3.183675159       979.847858159         0.533263123         3.716938282         0.040845770
       204           20.400000         3.181043554       979.037922224         0.535895691         3.716939245         0.040813155
       205           20.500000         3.178083034       978.126755378         0.538857339         3.716940372         0.040993207
       206           20.600000         3.174811093       977.119741778         0.542130565         3.716941658         0.041044121
       207           20.700000         3.171247718       976.023032660         0.545695367         3.716943085         0.041211322
       208           20.800000         3.167415195       974.843487267         0.549529449         3.716944644         0.041466663
       209           20.900000         3.163337887       973.588603761         0.553608429         3.716946316         0.041451228
       210           21.000000         3.159041987       972.266443609         0.557906100         3.716948087         0.041551800
       211           21.100000         3.154555255       970.885550660         0.562394682         3.716949937         0.041322510
       212           21.200000         3.149906739       969.454864911         0.567045110         3.716951849         0.041697420
       213           21.300000         3.145126484       967.983633769         0.571827319         3.716953804         0.041580155
       214           21.400000         3.140245235       966.481318974         0.576710549         3.716955784         0.041578689
       215           21.500000         3.135294122       964.957502287         0.581663644         3.716957766         0.041569890
       216           21.600000         3.130304363       963.421791553         0.586655371         3.716959734         0.041111029
       217           21.700000         3.125306956       961.883726861         0.591654710         3.716961666         0.041085467
       218           21.800000         3.120332378       960.352688147         0.596631170         3.716963548         0.040912400
       219           21.900000         3.115410289       958.837804271         0.601555070         3.716965359         0.041031340
       220           22.000000         3.110569261       957.347868650         0.606397822         3.716967083         0.041167112
       221           22.100000         3.105836514       955.891258789         0.611132191         3.716968705         0.041247640
       222           22.200000         3.101237667       954.475860047         0.615732546         3.716970213         0.041314688
       223           22.300000         3.096796522       953.108997349         0.620175071         3.716971593         0.041159988
       224           22.400000         3.092534857       951.797373998         0.624437973         3.716972831         0.041120947
       225           22.500000         3.088472262       950.547018560         0.628501662         3.716973924         0.041126674
       226           22.600000         3.084625982       949.363239233         0.632348878         3.716974860         0.040986641
       227           22.700000         3.081010809       948.250588212         0.635964825         3.716975634         0.041110122