       0       0.000         0.601257234         0.521078997         0.519894282         0.532249282         0.527226645         0.527480331         0.529723152         0.523276373         0.524514115         0.534452991         0.535675951         0.536896499         0.530301912         0.513893753         0.526785954         0.531990684         0.519510756         0.525546799         0.527439090         0.528619298         0.526007487         0.524335556         0.532361814         0.525428452         0.519178313         0.520535277         0.527088227         0.524492593         0.523141151         0.526219980         0.529404053         3.716965540
       1       0.100         0.600101463         0.520050977         0.518641876         0.531327310         0.526287028         0.526581923         0.528765806         0.522156845         0.523461261         0.533709170         0.534597912         0.536084694         0.529482082         0.512972459         0.525954227         0.530937770         0.518917040         0.524732637         0.526508228         0.527990876         0.525147259         0.523389726         0.531578065         0.524175484         0.518241772         0.519539500         0.526325389         0.523544876         0.522285629         0.525420878         0.528878432         3.716965724
       2       0.200         0.598883672         0.518954224         0.517327556         0.530332558         0.525280511         0.525616989         0.527738733         0.520971358         0.522341814         0.532890444         0.533446269         0.535199467         0.528592688         0.511992530         0.525049330         0.529814131         0.518264405         0.523849969         0.525509632         0.527292913         0.524217854         0.522378696         0.530721280         0.522856892         0.517245171         0.518483166         0.525496140         0.522524782         0.521365146         0.524559288         0.528281084         3.716965783
       3       0.300         0.597602076         0.517787621         0.515950943         0.529263796         0.524205744         0.524584228         0.526640725         0.519718661         0.521154650         0.531995317         0.532220036         0.534239301         0.527632293         0.510952870         0.524069933         0.528618634         0.517551246         0.522897469         0.524441928         0.526523751         0.523218087         0.521301213         0.529790142         0.521472031         0.516187392         0.517365246         0.524599113         0.521431258         0.520378401         0.523633939         0.527610391         3.716965709
       4       0.400         0.596256933         0.516552054         0.514513593         0.528121770         0.523063347         0.523484310         0.525472553         0.518399477         0.519900615         0.531024279         0.530920202         0.533204658         0.526601439         0.509854348         0.523016697         0.527352122         0.516777921         0.521875792         0.523305719         0.525683716         0.522148753         0.520157997         0.528785314         0.520022227         0.515069281         0.516186673         0.523634921         0.520265248         0.519326069         0.522645525         0.526866723         3.716965505
       5       0.500         0.594850523         0.515250409         0.513019007         0.526909206         0.521855918         0.522319881         0.524236966         0.517016503         0.518582533         0.529979805         0.529549737         0.532097990         0.525502649         0.508699805         0.521892285         0.526017423         0.515946749         0.520787575         0.522103589         0.524775121         0.521012631         0.518951738         0.527709443         0.518510779         0.513893647         0.514950345         0.522606157         0.519029696         0.518210797         0.521596699         0.526052434         3.716965163
       6       0.600         0.593387168         0.513887538         0.511472589         0.525630772         0.520587999         0.521095532         0.522938660         0.515574381         0.517205173         0.528866331         0.528113555         0.530923702         0.524340397         0.507494016         0.520701324         0.524619309         0.515061980         0.519637405         0.520840070         0.523802234         0.519814452         0.517687069         0.526567124         0.516942925         0.512665229         0.513661092         0.521517363         0.517729508         0.517037178         0.520492049         0.525171837         3.716964700
       7       0.700         0.591873127         0.512470194         0.509881593         0.524293021         0.519266014         0.519817733         0.521584215         0.514079632         0.515775182         0.527690182         0.526618450         0.529688090         0.523121043         0.506243632         0.519450345         0.523164439         0.514129735         0.518431755         0.519521580         0.522771214         0.518560837         0.516370500         0.525364841         0.515325778         0.511390640         0.512325614         0.520374966         0.516371493         0.515811683         0.519338027         0.524231134         3.716964113
       8       0.800         0.590316546         0.511006938         0.508255029         0.522904302         0.517898181         0.518494746         0.520182007         0.512540572         0.514300999         0.526459493         0.525073011         0.528399254         0.521852747         0.504957089         0.518147692         0.521661266         0.513157914         0.517178898         0.518156336         0.521690028         0.517260203         0.515010331         0.524110876         0.513668236         0.510078268         0.510952387         0.519187190         0.514964271         0.514542579         0.518142869         0.523238333         3.716963418
       9       0.900         0.588727296         0.509508020         0.506603549         0.521474636         0.516494394         0.517136508         0.518742086         0.510967190         0.512792735         0.525184088         0.523487502         0.527066981         0.520545351         0.503644489         0.516803408         0.520119922         0.512156083         0.515888787         0.516754234         0.520568328         0.515922651         0.513616535         0.522815190         0.511980861         0.508738167         0.509551549         0.517963938         0.513518154         0.513239805         0.516916468         0.522203127         3.716962622
      10       1.000         0.587116846         0.507985233         0.504939302         0.520015582         0.515066086         0.515754489         0.517276040         0.509371009         0.511262035         0.523875337         0.521873718         0.525702602         0.519210236         0.502317461         0.515429089         0.518552074         0.511135328         0.514572913         0.515326707         0.519417314         0.514559821         0.512200613         0.521489285         0.510275741         0.507381911         0.508134757         0.516716649         0.512045004         0.511914833         0.515670240         0.521136755         3.716961734
      11       1.100         0.585498085         0.506451743         0.503275771         0.518540065         0.513626052         0.514361520         0.515796819         0.507764917         0.509721903         0.522545992         0.520244816         0.524318823         0.517860153         0.500988987         0.514037717         0.516970757         0.510108092         0.513244139         0.513886560         0.518249560         0.513184721         0.510775430         0.520146031         0.508566313         0.506022422         0.506715015         0.515458133         0.510558061         0.510580500         0.514416949         0.520051830         3.716960765
      12       1.200         0.583885122         0.504921897         0.501627576         0.517062184         0.512188269         0.512971607         0.514318552         0.506162982         0.508186517         0.521209995         0.518615129         0.522929540         0.516509035         0.499673218         0.512643469         0.515390182         0.509087982         0.511916506         0.512447778         0.517078834         0.511811540         0.509355022         0.518799477         0.506867178         0.504673788         0.505306487         0.514202374         0.509071757         0.509250819         0.513170524         0.518962152         3.716959735
      13       1.300         0.582293072         0.503411016         0.500010276         0.515597012         0.510767688         0.511599726         0.512856337         0.504580238         0.506671020         0.519882275         0.516999956         0.521549629         0.515171794         0.498385264         0.511261513         0.513825532         0.508089569         0.510605030         0.511025322         0.515919884         0.510455443         0.507954394         0.517464651         0.505193891         0.503351054         0.503924291         0.512964334         0.507601502         0.507940770         0.511945849         0.517882503         3.716958759
      14       1.400         0.580737818         0.501935169         0.498440114         0.514160337         0.509379975         0.510261565         0.511425985         0.503032406         0.505191265         0.518578492         0.515415306         0.520194694         0.513864059         0.497140944         0.509907751         0.512292705         0.507128126         0.509325448         0.509634870         0.514788186         0.509132313         0.506589259         0.516157296         0.503562706         0.502069961         0.502584240         0.511759688         0.506163433         0.506666051         0.510758507         0.516828389         3.716957742
      15       1.500         0.579235810         0.500510946         0.496933872         0.512768530         0.508041388         0.508973393         0.510043894         0.501535855         0.503763688         0.517314905         0.513877769         0.518880932         0.512602051         0.495956645         0.508598685         0.510808183         0.506219504         0.508094083         0.508292692         0.513699816         0.507858617         0.505275914         0.514893744         0.501990443         0.500846826         0.501302713         0.510604697         0.504774279         0.505442942         0.509624653         0.515815910         3.716956609
      16       1.600         0.577803775         0.499155208         0.495508544         0.511438208         0.506768430         0.507751722         0.508726702         0.500107169         0.502404961         0.516108035         0.512404174         0.517624799         0.511402240         0.494848994         0.507351081         0.509388691         0.505379793         0.506927504         0.507015306         0.512671107         0.506651070         0.504030895         0.513690575         0.500494147         0.499698191         0.500096315         0.509515869         0.503451019         0.504287965         0.508560672         0.514861421         3.716955472
      17       1.700         0.576458502         0.497884845         0.494181120         0.510186019         0.505577640         0.506613090         0.507491077         0.498762961         0.501131782         0.514974449         0.511011376         0.516442791         0.510281133         0.493834632         0.506181749         0.508050986         0.504625101         0.505842315         0.505819263         0.511718432         0.505526420         0.502870767         0.512564404         0.499090872         0.498640617         0.498981659         0.508509741         0.502210668         0.503217673         0.507582965         0.513981316         3.716954355
      18       1.800         0.575216561         0.496716525         0.492968337         0.509028398         0.504485346         0.505573819         0.506353470         0.497519633         0.499960629         0.513930516         0.509716007         0.515351202         0.509255025         0.492929977         0.505107301         0.506811606         0.503971320         0.504854909         0.504720904         0.510857968         0.504501199         0.501811874         0.511531633         0.497797437         0.497690435         0.497975127         0.507602635         0.501070028         0.502248404         0.506707703         0.513191782         3.716953264
      19       1.900         0.574094082         0.495666451         0.491886435         0.507981318         0.503507423         0.504649768         0.505329870         0.496393129         0.498907512         0.512992162         0.508534237         0.514365879         0.508339758         0.492150978         0.504143904         0.505686630         0.503433874         0.503981219         0.503736119         0.510105442         0.503591481         0.500870100         0.510608209         0.496630178         0.496863501         0.497092618         0.506810415         0.500045446         0.501396034         0.505950586         0.512508560         3.716952217
      20       2.000         0.573106509         0.494750124         0.490950921         0.507060061         0.502659054         0.503856098         0.504435570         0.495398698         0.497987743         0.512174635         0.507481530         0.513501984         0.507550485         0.491512874         0.503307042         0.504691438         0.503027489         0.503236486         0.502880101         0.509475901         0.502812643         0.500060629         0.509809385         0.495604714         0.496174963         0.496349317         0.506148246         0.499152572         0.500675746         0.505326604         0.511946699         3.716951233
      21       2.100         0.572268360         0.493982113         0.490176344         0.506278986         0.501954508         0.503207046         0.503684939         0.494550674         0.497215705         0.511492278         0.506572427         0.512773769         0.506901440         0.491029972         0.502611293         0.503840489         0.502765964         0.502635033         0.502167130         0.508983484         0.502179143         0.499397721         0.509149499         0.494735716         0.495639034         0.495759465         0.505630373         0.498406132         0.500101800         0.504849813         0.511520341         3.716950318
      22       2.200         0.571593031         0.493375837         0.489576073         0.505651316         0.501406919         0.502715704         0.503091202         0.493862248         0.496604634         0.510958310         0.505820316         0.512194361         0.506405723         0.490715428         0.502070103         0.503147096         0.502661955         0.502190042         0.501610347         0.508641201         0.501704292         0.498894494         0.508641750         0.494036692         0.495268772         0.495336145         0.505269895         0.497819711         0.499687312         0.504533116         0.511242491         3.716949493
      23       2.300         0.571092558         0.492943358         0.489162087         0.505188922         0.501028078         0.502393814         0.502666235         0.493345269         0.496166412         0.510584616         0.505237233         0.511775545         0.506075090         0.490581037         0.501695581         0.502623223         0.502726768         0.501913348         0.501221551         0.508460729         0.501400056         0.498562715         0.508297990         0.493519772         0.495075872         0.495091067         0.505078564         0.497405538         0.499444054         0.504388055         0.511124816         3.716948763
      24       2.400         0.570777453         0.492695190         0.488944793         0.504902146         0.500828249         0.502251579         0.502420376         0.493010052         0.495911379         0.510381565         0.504833670         0.511527587         0.505919766         0.490637045         0.501498309         0.502279295         0.502970172         0.501815251         0.501011007         0.508452221         0.501276859         0.498412610         0.508128542         0.493195529         0.495070482         0.495034386         0.505066590         0.497174303         0.499382259         0.504424625         0.511177456         3.716948142
      25       2.500         0.570656530         0.492640135         0.488932856         0.504799630         0.500815999         0.502297499         0.502362258         0.492865216         0.495848169         0.510357839         0.504618412         0.511459061         0.505948280         0.490891987         0.501487180         0.502124032         0.503400234         0.501904355         0.500987285         0.508624143         0.501343423         0.498452707         0.508142031         0.493072805         0.495261035         0.495174537         0.505242481         0.497134986         0.499510460         0.504651110         0.511408858         3.716947642
      26       2.600         0.570736753         0.492785139         0.489133056         0.504888170         0.500998061         0.502538226         0.502498671         0.492917537         0.495983566         0.510520291         0.504598391         0.511576711         0.506167321         0.491352539         0.501669247         0.502164306         0.504023179         0.502187415         0.501157114         0.508983129         0.501606623         0.498689684         0.508345239         0.493158570         0.495654107         0.495518088         0.505612896         0.497294714         0.499835345         0.505073939         0.511825632         3.716947264
      27       2.700         0.571023133         0.493135168         0.489550166         0.505172604         0.501379208         0.502978442         0.502834433         0.493171831         0.496322383         0.510873825         0.504778564         0.511885325         0.506581616         0.492023401         0.502049601         0.502405022         0.504843265         0.502669224         0.501525259         0.509533859         0.502071364         0.499128255         0.508742987         0.493457802         0.496254297         0.496069622         0.506182524         0.497658637         0.500361637         0.505697564         0.512432429         3.716947018
      28       2.800         0.571518625         0.493693117         0.490186858         0.505655707         0.501962157         0.503620768         0.503372302         0.493630855         0.496867363         0.511421296         0.505161821         0.512387640         0.507193834         0.492907196         0.502631282         0.502849017         0.505862694         0.503352512         0.502094428         0.510278966         0.502740482         0.499771067         0.509338038         0.493973388         0.497064128         0.496831639         0.506953985         0.498229832         0.501091996         0.506524367         0.513231848         3.716946911
      29       2.900         0.572224049         0.494459734         0.491043629         0.506338126         0.502747505         0.504465687         0.504112899         0.494295239         0.497619116         0.512163442         0.505748912         0.513084275         0.508004519         0.494004404         0.503415197         0.503496993         0.507081537         0.504237879         0.502865202         0.511218960         0.503614682         0.500618638         0.510131027         0.494706055         0.498083983         0.497804490         0.507927767         0.499009232         0.502026951         0.507554590         0.514224361         3.716946938
      30       3.000         0.573138064         0.495433580         0.492118759         0.507218338         0.503733680         0.505511507         0.505054672         0.495163442         0.498576071         0.513098840         0.506538403         0.513973684         0.509012041         0.495313315         0.504400084         0.504347472         0.508497696         0.505323748         0.503835989         0.512352190         0.504692484         0.501669308         0.511120416         0.495654327         0.499312055         0.498986329         0.509102172         0.499995580         0.503164855         0.508786293         0.515408275         3.716947102
      31       3.100         0.574257151         0.496611013         0.493408297         0.508292631         0.504916926         0.506754343         0.506193874         0.496231739         0.499734461         0.514223891         0.507526665         0.515052141         0.510212585         0.496830018         0.505582490         0.505396783         0.510106887         0.506606353         0.505003009         0.513674827         0.505970216         0.502919226         0.512302482         0.496814508         0.500744340         0.500373102         0.510473308         0.501185413         0.504501873         0.510215338         0.516779711         3.716947407
      32       3.200         0.575575616         0.497986202         0.494906069         0.509555117         0.506291319         0.508188126         0.507524578         0.497494229         0.501088339         0.515532826         0.508707879         0.516313753         0.511600161         0.498548407         0.506956784         0.506639071         0.511902653         0.508079748         0.506360306         0.515180871         0.507442016         0.504362365         0.513671324         0.498180693         0.502374641         0.501958557         0.512035098         0.502573071         0.506031988         0.511835402         0.518332619         3.716947845
      33       3.300         0.577085645         0.499551158         0.496603717         0.510997771         0.507848799         0.509804646         0.509038715         0.498942874         0.502629607         0.517017748         0.510074077         0.517750494         0.513166640         0.500460221         0.508515193         0.508066333         0.513876402         0.509735843         0.507899785         0.516862193         0.509099879         0.505990550         0.515218906         0.499744807         0.504194612         0.503734283         0.513779313         0.504150736         0.507747042         0.513638016         0.520058813         3.716948414
      34       3.400         0.578777364         0.501295803         0.498490758         0.512610489         0.509579233         0.511593607         0.510726131         0.500567559         0.504348086         0.518668689         0.511615204         0.519352269         0.514901814         0.502555103         0.510247859         0.509668480         0.516017469         0.511564469         0.509611274         0.518708592         0.510933707         0.507793530         0.516935112         0.501496665         0.506193814         0.505689769         0.515695639         0.505908489         0.509636795         0.515612623         0.521948033         3.716949110
      35       3.500         0.580638911         0.503208050         0.500554668         0.514381176         0.511470501         0.513542715         0.512574676         0.502356180         0.506231598         0.520473694         0.513319199         0.521106995         0.516793485         0.504820685         0.512142925         0.511433423         0.518313202         0.513553456         0.511482602         0.520707882         0.512931402         0.509759055         0.518807831         0.503424057         0.508359804         0.507812492         0.517771754         0.507834395         0.511689012         0.517746669         0.523988028         3.716949924
      36       3.600         0.582656574         0.505273921         0.502780996         0.516295856         0.513508605         0.515637793         0.514570315         0.504294752         0.508266076         0.522418934         0.515172113         0.523000716         0.518827571         0.507242704         0.514186648         0.513347184         0.520749073         0.515688751         0.513499723         0.522846000         0.515078974         0.511872993         0.520823077         0.505512859         0.510678247         0.510088029         0.519993447         0.509914613         0.513889572         0.520025712         0.526164670         3.716950850
      37       3.700         0.584814910         0.507477680         0.505153497         0.518338810         0.515677809         0.517862911         0.516697264         0.506367547         0.510435703         0.524488839         0.517158236         0.525017735         0.520988247         0.509805130         0.516363527         0.515394030         0.523308816         0.517954552         0.515646837         0.525107145         0.517360674         0.514119464         0.522965113         0.507747169         0.513133050         0.512500191         0.522344748         0.512133535         0.516222607         0.522433560         0.528462090         3.716951875
      38       3.800         0.583144963         0.509801983         0.507654284         0.520492721         0.517960783         0.520200539         0.518938138         0.508557245         0.512723062         0.526666250         0.519260258         0.527140766         0.523258091         0.512490322         0.518656460         0.517556625         0.525974580         0.520333454         0.517906554         0.527473926         0.519759149         0.516480991         0.525216610         0.510109462         0.515706514         0.515031180         0.524808082         0.514473929         0.518670648         0.524952423         0.530862823         3.716952990
      39       3.900         0.585673694         0.512091901         0.510363952         0.522722433         0.520321346         0.522614278         0.521256685         0.510827662         0.515091866         0.528915144         0.521441991         0.529333666         0.525600818         0.515261756         0.521029467         0.519798760         0.528709656         0.522789187         0.520242613         0.529910093         0.522238170         0.518921228         0.527541373         0.512563313         0.518362068         0.517644312         0.527346996         0.516899675         0.521197359         0.527545643         0.533330545         3.716954476
      40       4.000         0.588281155         0.514481196         0.513169950         0.525037218         0.522769797         0.525114217         0.523663140         0.513189106         0.517552314         0.531245994         0.523713729         0.531606784         0.528026630         0.518129380         0.523493048         0.522130707         0.531523835         0.525331963         0.522665243         0.532425890         0.524807984         0.521450320         0.529949698         0.515118759         0.521109619         0.520349381         0.529971515         0.519421114         0.523812889         0.530223050         0.535875424         3.716956030
      41       4.100         0.590943007         0.516947728         0.516050392         0.527415455         0.525284510         0.527678501         0.526135794         0.515619950         0.520082663         0.533637333         0.526053818         0.533938538         0.530513794         0.521071186         0.526025753         0.524530793         0.534394982         0.527940051         0.525152734         0.534999625         0.527446891         0.524046470         0.532419943         0.517753867         0.523927128         0.523124225         0.532659715         0.522016624         0.526495447         0.532962537         0.538475692         3.716957615
      42       4.200         0.593634377         0.519468495         0.518982643         0.529834747         0.527843084         0.530284493         0.528652161         0.518097791         0.522660390         0.536066922         0.528439817         0.536306573         0.533039797         0.524064372         0.528605340         0.526976559         0.537300194         0.530590942         0.527682595         0.537608836         0.530132400         0.526687106         0.534929686         0.520445900         0.526791770         0.525945894         0.535388883         0.524663779         0.529222461         0.535741220         0.541108809         3.716959190
      43       4.300         0.596330398         0.522019885         0.521943560         0.532272168         0.530422590         0.532909024         0.531189217         0.520599697         0.525262434         0.538511988         0.530848746         0.538688004         0.535581594         0.527085584         0.531209020         0.529445005         0.540216049         0.533261585         0.530231803         0.540230530         0.532841475         0.529349120         0.537455976         0.523171557         0.529680181         0.528790889         0.538135761         0.527339591         0.531970820         0.538535682         0.543751702         3.716960709
      44       4.400         0.599006731         0.524577952         0.524909728         0.534704514         0.532999822         0.535528638         0.533723656         0.523102455         0.527865454         0.540949477         0.533257335         0.541059672         0.538115860         0.530111173         0.533813711         0.531912843         0.543118859         0.535928647         0.532777052         0.542841436         0.535550791         0.532009122         0.539975580         0.525907231         0.532568709         0.531635423         0.540876801         0.530020766         0.534717131         0.541322232         0.546381023         3.716962141