     900
 i =      200, time =       20.000, E =         2.7283342583
  C        -1.1864980062        0.3468303915        2.5729011614
  C        -0.4850325578        1.2934723454        1.7776761258
  C        -0.0489704471        0.9110296109        0.4734503121
  C         0.6229748204        1.9161584536       -0.2663006025
  C        -1.2664871649       -1.0497647212        2.0566761541
  H        -1.5128454260        0.6056975455        3.6142142704
  H        -0.2334193018        2.1472045618        2.1986176110
  H         0.6930747898        2.8581346041        0.1450428586
  H        -1.6335086707       -1.7537583219        2.8363466760
  C        -0.1707897387       -0.4133282621       -0.0023388129
  C         1.1867639408        1.5521464372       -1.5376811095
  C        -0.7419664257       -1.3719098654        0.8299586430
  C         0.3230706153       -0.7718110351       -1.3370398912
  C         0.9274110459        0.2465575596       -2.0836010054
  H         1.4531240155        2.2215553865       -2.1756341662
  H        -0.7522249479       -2.3864005871        0.6289207865
  H         0.1609942265       -1.7971840040       -1.7148254159
  H         1.3000832807        0.0107763985       -3.0731331558
  C         5.1133597496        3.2099703323       -2.2644731961
  C         4.2235091202        4.0869810652       -1.5146120082
  C         3.7077065780        3.6800722573       -0.2648225583
  C         2.8902089651        4.5723975498        0.4365816280
  C         5.3848501408        1.9406878672       -1.8366161114
  H         5.4665926043        3.4129837019       -3.3289846404
  H         3.8467772058        4.9396584567       -1.9363257908
  H         2.7624591178        5.5592968431        0.1086678907
  H         5.8947096834        1.2777175535       -2.5284327527
  C         4.0689335142        2.4389126301        0.2166718306
  C         2.5624052161        4.2298453001        1.7741596261
  C         4.9863753946        1.5494386773       -0.4794765321
  C         3.7465526607        1.9908894876        1.5392897320
  C         2.9967462100        3.0029292900        2.3121938535
  H         1.9908124078        4.9014628960        2.5393841786
  H         5.3389001000        0.6221692439       -0.0801977720
  H         4.0319114020        1.1169748332        1.9733797257
  H         2.7392247665        2.8580397480        3.4218794350
  C        -1.5616974720        6.3851659403        2.7150407703
  C        -0.7519936196        7.2105954040        1.9376274645
  C        -0.3210442772        6.7493804805        0.6484544801
  C         0.4297812571        7.6377558745       -0.1447083078
  C        -1.8287308721        5.0103641951        2.3084817698
  H        -2.1353538721        6.7084075552        3.7337598168
  H        -0.4740050522        8.1294494956        2.2643012714
  H         0.7861672224        8.5421959484        0.2779367460
  H        -2.4250621784        4.4005660528        3.0650362915
  C        -0.7238325279        5.4938882149        0.2336624479
  C         0.7661246552        7.1875285320       -1.4603005475
  C        -1.3909102067        4.5911773649        1.0471583881
  C        -0.2963160561        5.0351969320       -1.1047939259
  C         0.3568880272        5.9527719323       -1.9718877421
  H         1.3621957702        7.8024436314       -2.1665061154
  H        -1.6316530544        3.7104478713        0.8395657540
  H        -0.6481015848        4.1699925287       -1.3854281876
  H         0.6436218116        5.7192106575       -2.9282123013
  C         4.9391807949        9.0844462536       -2.1138216796
  C         4.1844019342        9.9805539722       -1.3101875711
  C         3.8399758025        9.4941657523        0.0022339450
  C         3.0352184549       10.4030139238        0.8462212148
  C         5.1523503498        7.7818966593       -1.7765142731
  H         5.3126047766        9.2792626265       -3.1052146285
  H         3.8740079080       10.9612694417       -1.5174279037
  H         2.9216106049       11.3675389845        0.4570698376
  H         5.7274040810        7.1588198558       -2.4012839460
  C         4.1100898992        8.1784209445        0.4113706934
  C         2.6500599810        9.8487236236        2.1239943665
  C         4.7897654525        7.2741732768       -0.4910146430
  C         3.6549041483        7.6715864894        1.6723432278
  C         2.8803032068        8.5632650044        2.4605417718
  H         2.1657481225       10.4612635678        2.7628970583
  H         5.0119947127        6.3113350992       -0.1784910142
  H         3.8233106908        6.6199978203        1.8480757348
  H         2.4996623570        8.1155107952        3.3271205966
  C        -1.0502044552       12.1968579137        2.5619777228
  C        -0.2412118394       13.0189713371        1.7367447373
  C         0.0447243811       12.4729557994        0.4044911507
  C         0.7587604390       13.2223451554       -0.5540183308
  C        -1.5678901416       10.9654289859        2.1760008723
  H        -1.3901893724       12.5433124401        3.5509091433
  H         0.1781269385       13.8233420064        2.0013567201
  H         1.1455073307       14.1144968782       -0.3144142554
  H        -2.0376161199       10.4403118235        2.9655488028
  C        -0.4995716706       11.2179480430       -0.0094854603
  C         0.9976495701       12.7526039427       -1.8364593963
  C        -1.3330240717       10.4246586846        0.8731772188
  C        -0.2871754976       10.7088189385       -1.2654301605
  C         0.4526274633       11.4176936987       -2.1977575054
  H         1.6013311048       13.3215596400       -2.6501506301
  H        -1.7042805732        9.5381449296        0.5048863792
  H        -0.7356544731        9.9489742429       -1.6127314667
  H         0.5849977076       11.0707905898       -3.1705840987
  C         4.9058932852       14.7413629892       -1.9831965928
  C         3.9782123858       15.5705309378       -1.3248977985
  C         3.6505013211       15.2202845259        0.0422874847
  C         2.8618797192       16.1261431610        0.7431427897
  C         5.3365062120       13.5321881916       -1.4386182101
  H         5.2246155931       14.8009264889       -2.9541026228
  H         3.4588589685       16.4444290629       -1.6862178945
  H         2.5695706267       16.9199386516        0.2763756005
  H         5.8237162291       12.8112623071       -2.0872234274
  C         4.1701836823       14.1404951619        0.6521737406
  C         2.5401945779       15.8987870022        2.0893916877
  C         4.9973035633       13.2068869478       -0.0739823079
  C         3.8062649957       13.8103751586        1.9674450578
  C         3.0510458985       14.6751618826        2.7350720842
  H         1.8659797231       16.6239464067        2.7443042283
  H         5.2830542086       12.3497754879        0.3639804156
  H         4.1504570064       12.8801133855        2.2965004773
  H         2.6912224241       14.4741349234        3.7719435983
  C        -1.0369567842       17.8562184565        2.4471579107
  C        -0.3811133217       18.8472979751        1.6845993382
  C        -0.0082354638       18.5447340324        0.3287942003
  C         0.8097382833       19.4498820398       -0.3841465503
  C        -1.3475407753       16.6511264091        1.8935457603
  H        -1.3166255992       17.9236126272        3.4525209882
  H        -0.1213782427       19.8285267847        1.9179393208
  H         1.0345102990       20.3443562922        0.0689705799
  H        -1.8346709634       15.8711401341        2.6042180047
  C        -0.2598988019       17.2533717606       -0.1662640471
  C         1.3029824590       19.1069599917       -1.6382823739
  C        -1.0029639649       16.2369794510        0.5819630406
  C         0.1769208954       16.8968499993       -1.5255675928
  C         0.8973675129       17.8567502421       -2.2318540247
  H         1.8870690058       19.7792103101       -2.3343837303
  H        -1.2619212992       15.3954471100        0.1437725851
  H        -0.0661503301       16.0907323454       -1.9928034686
  H         1.2342457314       17.7562113323       -3.2359175917
  C         5.0420201003       20.6016615230       -2.1399680673
  C         4.4784464855       21.6003645589       -1.2242382280
  C         3.9301709121       21.1099541706        0.0402722301
  C         3.3189991727       22.0287169076        0.8711800765
  C         5.2271223551       19.3050950168       -1.7861337292
  H         5.3115594459       20.8076224574       -3.1487121775
  H         4.3206902565       22.5309485499       -1.4676597255
  H         3.3082961575       22.9689753336        0.5674231853
  H         5.6568291053       18.6407095721       -2.5784677507
  C         4.0374403294       19.7616334557        0.3900194759
  C         2.8047942628       21.6025588885        2.0403980800
  C         4.7657845692       18.8522650302       -0.4864258952
  C         3.6042473067       19.2959730533        1.6086129932
  C         2.9716254717       20.2328730351        2.4888010625
  H         2.2887733151       22.2493872690        2.8407843327
  H         4.7699830039       17.8939207400       -0.2421445781
  H         3.7856319751       18.3979736884        1.9527568761
  H         2.6351930042       19.9928800175        3.4482941810
  C        -0.3320384318       23.7685267932        2.5634543717
  C         0.3098265281       24.7593415238        1.7231117714
  C         0.5122639869       24.4755507577        0.3374205433
  C         1.1935935565       25.4349479533       -0.4456479663
  C        -0.7831090293       22.6071112753        2.0072894962
  H        -0.6174854710       23.9176562452        3.6518080205
  H         0.6395806622       25.5841861435        2.2308195766
  H         1.4820255539       26.2984450676        0.0504099698
  H        -1.2437981901       21.8631331941        2.7245324034
  C         0.1469943600       23.2059120716       -0.1651321442
  C         1.5411233071       25.1442207870       -1.7454341044
  C        -0.5732624155       22.2573919637        0.6292240127
  C         0.5138779420       22.8560332793       -1.4507699178
  C         1.2541745182       23.7835757748       -2.2303258611
  H         2.0859749887       25.8017498820       -2.4506152993
  H        -0.9042525935       21.4517224190        0.2103455790
  H         0.1622812989       21.9897095192       -1.8264245293
  H         1.5756464670       23.4972900205       -3.2180229819
  C         5.1956943231       27.1746190571       -1.9272844770
  C         4.2843984138       27.9809534667       -1.1965198898
  C         3.8156717708       27.5262296226        0.1168887278
  C         3.1736767558       28.4451303639        0.9298804251
  C         5.5370994200       25.8928870201       -1.4828376862
  H         5.6752033541       27.6112735975       -2.8473074553
  H         4.0028768414       28.9424930552       -1.5154221568
  H         2.9501245820       29.3270705364        0.5559943901
  H         6.2308528143       25.2691873263       -2.1051483286
  C         4.1368958572       26.2268809147        0.5235187399
  C         2.7628499566       28.0437216458        2.1679160684
  C         5.0139992555       25.3063146682       -0.2397590208
  C         3.7469192446       25.8103064584        1.8171733072
  C         3.1238232482       26.7217079677        2.6597886420
  H         2.0510610928       28.6380582112        2.7841474116
  H         5.2679947505       24.3625304804        0.1085897949
  H         3.8988703867       24.8626308981        2.0524452733
  H         2.8343371483       26.3174950520        3.6367668990
  C         6.8281475172        0.2791424130        2.5883942707
  C         7.5878973896        1.1687535381        1.8231295634
  C         8.1018790200        0.7890887126        0.5392684559
  C         8.8076125952        1.7488108958       -0.2667447500
  C         6.6633398513       -1.0642059052        2.1276186189
  H         6.4924071590        0.6155740230        3.4839443186
  H         7.8474527890        2.0300448107        2.0686735112
  H         8.9573117765        2.6423060183        0.0920865316
  H         6.2553847807       -1.7021292157        2.7960252868
  C         7.8357718932       -0.5289084642        0.0546017198
  C         9.2122045801        1.3016170946       -1.5972016411
  C         7.1991940166       -1.4543854114        0.8616941073
  C         8.2496978271       -0.9384842153       -1.2725436000
  C         9.0911051713       -0.0700514598       -2.0112014592
  H         9.7794257579        1.9801105892       -2.1452740056
  H         7.0950290936       -2.3787951990        0.5110589200
  H         8.0946701668       -1.8909007938       -1.4484134139
  H         9.5914027736       -0.3588116050       -2.8605078977
  C        13.0430395145        3.0885280259       -2.1062633531
  C        12.2149174752        4.0367032145       -1.3412104327
  C        11.7359801077        3.5900786036       -0.0564007115
  C        11.0910691974        4.5668464706        0.7526007343
  C        13.3229743106        1.7939523219       -1.6735440799
  H        13.5205047905        3.3901943906       -2.9975592934
  H        12.1031712826        5.0180393420       -1.6922713050
  H        10.8530707561        5.5074630225        0.4443717141
  H        14.0600822723        1.0405818989       -2.2854701347
  C        12.0208098344        2.3164860227        0.4211184863
  C        10.6217429352        4.1828092472        1.9851968899
  C        12.7872812090        1.3785621938       -0.4510622255
  C        11.5570643378        1.9058438115        1.6205311169
  C        10.8315211715        2.7613557249        2.4324050303
  H        10.0984012877        4.8560116284        2.6815419590
  H        12.9846853439        0.4371850898       -0.0556914387
  H        11.7696292532        0.9446532976        2.0571516911
  H        10.4944941226        2.4001057308        3.3361400040
  C         7.0101119880        6.1506070832        2.6828428704
  C         7.8485097114        6.9476406060        1.8640729242
  C         8.1962495022        6.5053887964        0.5530051200
  C         8.8298636745        7.4092438937       -0.3517509263
  C         6.5857776947        4.8689332284        2.2258377134
  H         6.7975023120        6.5001177736        3.6057057347
  H         8.2074829139        7.7780917677        2.1175421212
  H         9.1556883723        8.2543647523        0.0164007357
  H         6.0326749106        4.2004112948        2.8950238311
  C         7.7185765803        5.2540370364        0.1089146560
  C         9.1463750468        6.9323462197       -1.6597435300
  C         6.9924996792        4.3922791985        0.9868379651
  C         7.8728574654        4.8710800455       -1.2486617687
  C         8.6661878201        5.6317895018       -2.0596627127
  H         9.8602438371        7.4689845318       -2.3699842694
  H         6.6946724780        3.5258580968        0.6333457409
  H         7.5590467519        3.9786829590       -1.4436058917
  H         9.0544756317        5.2881227827       -3.0209994540
  C        13.0222208263        8.9441055368       -2.1963033449
  C        12.3405746534        9.9002015943       -1.3889507128
  C        12.0066469121        9.5035425151       -0.0346591101
  C        11.4649680318       10.4618893855        0.8253997558
  C        13.3810366515        7.7162492184       -1.7027247225
  H        13.3630323606        9.2872246898       -3.1274596239
  H        12.2039169040       10.8734993664       -1.5299924886
  H        11.1351248313       11.3490009055        0.5338410787
  H        14.0322607427        7.1226586332       -2.3005786604
  C        12.3175205638        8.2175677043        0.4092271840
  C        11.0298105738       10.0634549644        2.1244792173
  C        13.0532720822        7.2782247929       -0.3669667867
  C        12.0158320433        7.7997370549        1.7673008809
  C        11.3608439176        8.7327831233        2.6082910336
  H        10.3718677817       10.8023875438        2.8235651936
  H        13.3189091193        6.3636324212        0.0327289238
  H        12.1537442622        6.9066715708        2.0933555419
  H        10.8525720497        8.4664035830        3.6586118348
  C         7.3164345222       11.8941976206        2.5057681949
  C         8.0843165572       12.7063637521        1.6583684456
  C         8.4413854457       12.3125543263        0.3770199338
  C         9.1375083805       13.1888156810       -0.5297722463
  C         6.9212767064       10.6434197346        2.0332537652
  H         7.0396602455       12.1468957384        3.5833772962
  H         8.4105568123       13.7019787925        1.8620882965
  H         9.3188291403       14.0686490886       -0.2202071968
  H         6.2603789815       10.1121578736        2.7287162295
  C         8.0473184133       11.0892007357       -0.0711414625
  C         9.5325922365       12.7414115205       -1.7735890737
  C         7.2425668326       10.1834452808        0.7453728264
  C         8.4276691252       10.5924209662       -1.3509349798
  C         9.2108865439       11.4136833470       -2.1764202026
  H        10.1547485191       13.3817905678       -2.4472929993
  H         7.0450598590        9.3346305713        0.2606030216
  H         8.2402880084        9.6617964703       -1.6351490333
  H         9.4852226248       11.2009641854       -3.1563014263
  C        13.3321421135       14.9060938303       -2.2786710237
  C        12.5495850094       15.8214029967       -1.5144176479
  C        12.0796089718       15.3826620140       -0.1832365013
  C        11.3088439862       16.3355254735        0.5337370575
  C        13.6919515473       13.6049230000       -1.6565557238
  H        13.7412838680       14.9967888967       -3.2539376759
  H        12.1600943689       16.6830948727       -1.8917697726
  H        11.0872185861       17.1812143729        0.0078053983
  H        14.2913656693       12.9669763120       -2.2846972221
  C        12.5190934073       14.2221568100        0.4098058390
  C        10.8539292418       15.9297048971        1.8016948884
  C        13.3114616420       13.3056036326       -0.3459482770
  C        12.1565952213       13.8348210905        1.7198731075
  C        11.2634187710       14.7070762663        2.4634490766
  H        10.2130377720       16.5337981659        2.4448480312
  H        13.6707323695       12.5051495452        0.0651975593
  H        12.4787053083       13.0110731725        2.0994637103
  H        10.8669216376       14.4561334750        3.3763340539
  C         7.0318542894       18.0059065526        2.4269204998
  C         7.7403290685       18.9249478885        1.6190398626
  C         8.2820558106       18.5207998507        0.3943336011
  C         9.0402921252       19.4423034248       -0.4244392926
  C         6.8680820141       16.6614293579        1.9018211591
  H         6.7217464374       18.2816872201        3.4939186008
  H         7.8017648439       19.7783842110        2.0431202284
  H         9.2286516995       20.3442910670       -0.0210420513
  H         6.2796956699       15.8825375458        2.5202304746
  C         8.0044422067       17.2547971127       -0.0942737186
  C         9.5618502510       19.0172154769       -1.6664511057
  C         7.3507655056       16.3045634852        0.6621144807
  C         8.4696410390       16.8111371953       -1.4063224394
  C         9.2161594201       17.7593834252       -2.1764564886
  H        10.1180626728       19.7495458627       -2.2801251884
  H         7.2662095912       15.4116660925        0.3846226558
  H         8.1829472962       15.8933049820       -1.6456984062
  H         9.4569836222       17.4793162218       -3.1570435659
  C        13.1806859231       20.9744085444       -2.1437860244
  C        12.2626356970       21.8720054432       -1.4620497415
  C        11.8467020294       21.3886713977       -0.0879313557
  C        10.9547249494       22.2919600917        0.5897026797
  C        13.6261813180       19.7791405651       -1.5982924222
  H        13.6915759181       21.3488154695       -2.9662417347
  H        11.7565595747       22.6937512912       -1.7937069869
  H        10.7117484306       23.1669887990        0.2327595966
  H        14.4653773080       19.1838054918       -2.0385900678
  C        12.1829695570       20.1118134493        0.3971275777
  C        10.5866953428       21.8892836727        1.8877206602
  C        13.1118566436       19.2817547876       -0.3452665612
  C        11.7621591656       19.7514329560        1.6629399538
  C        10.9214099647       20.6088744624        2.4340256007
  H         9.9776016945       22.4946388837        2.5376471461
  H        13.3202391619       18.3347697746        0.0767515867
  H        12.1154915837       18.9282310353        2.0928125043
  H        10.5872052347       20.2678434682        3.5008762092
  C         7.0283241864       23.7905420960        2.2318427760
  C         7.7262820674       24.6277960617        1.3680968874
  C         8.2218751635       24.2665122224        0.1347875634
  C         8.9560483988       25.2104113699       -0.6788207714
  C         6.6798459417       22.4979159241        1.6106225909
  H         6.6200003086       24.0968511256        3.2226382103
  H         7.8234939324       25.4834625038        1.7224531916
  H         9.1564088382       26.0905808433       -0.3059893460
  H         6.0548471182       21.8224037601        2.2999035434
  C         7.8965117482       23.0339440213       -0.3504172703
  C         9.4480012217       24.7722425829       -1.9609627704
  C         7.0644841417       22.1650355723        0.3505057072
  C         8.3440511643       22.5695970324       -1.6722348037
  C         9.1040841381       23.5425077800       -2.4513732413
  H        10.0280716377       25.4374113048       -2.6074467420
  H         6.8800228194       21.2538173233        0.0277197768
  H         7.9977519106       21.6855026203       -1.9792412734
  H         9.3529769602       23.3447157719       -3.4493304132
  C        12.7336965315       26.7067339367       -2.2216284003
  C        12.0539043734       27.7080521534       -1.4423504140
  C        11.6062111505       27.3969027149       -0.1113959435
  C        10.9036448119       28.3532344235        0.6685162284
  C        13.2007295355       25.5002428968       -1.6041071400
  H        13.1662111665       26.9996240791       -3.1140045293
  H        11.8127132998       28.6638681305       -1.8010032861
  H        10.8525747484       29.3590882027        0.5811130269
  H        13.8167336977       24.7792036691       -2.1464506553
  C        12.0165648464       26.1828639472        0.4362009431
  C        10.5590031243       28.0815656499        1.9832926038
  C        12.7916771855       25.2204647851       -0.2452097696
  C        11.6164590521       25.8833984151        1.7816312955
  C        10.8434509131       26.7116872945        2.5225151119
  H        10.1628730487       28.8753143958        2.6304411396
  H        13.0145323977       24.4160672203        0.2388628569
  H        11.7613723274       24.9208352379        2.2667135161
  H        10.3711217566       26.4284971128        3.5316481452
  C        15.2233748730        0.2694709678        2.3931236891
  C        15.8967511507        1.1684531680        1.5113711574
  C        16.2519643268        0.7357125760        0.1683223691
  C        16.9634132861        1.6598342788       -0.6488507629
  C        14.8274009177       -0.9528697660        1.8747488919
  H        14.9736639472        0.4239574206        3.4204094115
  H        16.1655691265        2.0171373102        1.8874791803
  H        17.0550985887        2.5778855449       -0.2732202072
  H        14.2018154119       -1.6555553927        2.4978167390
  C        15.8547085403       -0.4810148270       -0.3310557401
  C        17.3120242616        1.2597188044       -1.9366983856
  C        15.1941199979       -1.4095336777        0.5568157269
  C        16.1204720726       -0.8985242834       -1.6404770638
  C        16.9798497958       -0.0669281413       -2.4120320867
  H        17.8551852715        1.9728096098       -2.6295801774
  H        14.9982398315       -2.3200203344        0.1297431984
  H        15.7479523898       -1.7816108729       -1.9127787123
  H        17.2363588063       -0.2821310551       -3.4687504594
  C        21.0063286549        3.1501621367       -2.3660039368
  C        20.2535953674        4.0201605941       -1.4803437720
  C        19.7302421392        3.4933749302       -0.2298046903
  C        19.0899310417        4.3978396672        0.6416317319
  C        21.3452380551        1.8118733999       -1.9695834983
  H        21.2873059581        3.3778960591       -3.3868554769
  H        19.8817608045        4.9703972158       -1.7674931355
  H        19.0270680945        5.3932742027        0.3996829488
  H        21.9510768997        1.2832291253       -2.6854500477
  C        20.1226137363        2.2040208346        0.1895923300
  C        18.7323177552        3.9670276795        1.9100128157
  C        20.9301350622        1.3279716041       -0.6435986730
  C        19.7259638226        1.7665194438        1.4400476471
  C        18.9718694706        2.6098693912        2.2643992055
  H        18.2462110892        4.5568176223        2.7575206980
  H        21.2835273634        0.4572746066       -0.2467737139
  H        19.8902111010        0.8104141309        1.6058167751
  H        18.5003870823        2.2039144211        3.2085750090
  C        15.0460216771        5.7504741720        2.3691665386
  C        15.7766289877        6.7193081980        1.6945116485
  C        16.2545842258        6.4835877274        0.3980440603
  C        16.9954702078        7.5259572249       -0.2340365752
  C        14.8487384429        4.4563376382        1.7206023587
  H        14.7370456010        5.9051695719        3.4499927698
  H        16.0108359828        7.5354107426        2.1802748251
  H        17.1364307021        8.3480308313        0.3600795689
  H        14.4167297726        3.5441742778        2.4421321875
  C        15.9889795275        5.3045204359       -0.2395610237
  C        17.4003140685        7.2875904841       -1.5674656494
  C        15.3087400600        4.2375133686        0.4173412589
  C        16.4910337350        5.0557717065       -1.5922528332
  C        17.2050247476        6.1119823893       -2.2363760885
  H        18.1293408175        7.9924734003       -2.0549210095
  H        15.0562974271        3.3564108221        0.0106858326
  H        16.3223823344        4.0981409559       -2.0225721676
  H        17.6147725004        5.9773954437       -3.2273186040
  C        21.3417531235        8.9156050316       -2.3693838724
  C        20.6121535083        9.8865754893       -1.5788199493
  C        20.2631192013        9.4527606050       -0.1857551730
  C        19.5432380155       10.4028932825        0.6398504106
  C        21.6000928132        7.6615094201       -1.9457835966
  H        21.5714756989        9.2357986896       -3.3397611512
  H        20.1664178917       10.8127478666       -1.7560984176
  H        19.3655229190       11.2869185455        0.3064919560
  H        22.2114250501        7.0970571575       -2.6807664895
  C        20.5433689742        8.1365227350        0.2076324907
  C        19.1124699520        9.9558791616        1.8649756852
  C        21.1864904293        7.1777181960       -0.6515773681
  C        20.2078382152        7.7374960005        1.5396075945
  C        19.4997018939        8.6418487483        2.3411621753
  H        18.6068707678       10.6683389211        2.5519775900
  H        21.3921795804        6.2343461736       -0.3903538666
  H        20.5558015293        6.9035756039        1.9574070277
  H        19.2055167913        8.3400117147        3.4343259434
  C        15.2581939282       12.0742624810        2.4829870883
  C        16.0486940512       12.9475125750        1.6471051939
  C        16.4736291527       12.4517811820        0.3781518045
  C        17.2036287497       13.3764690451       -0.4605385405
  C        14.8405580542       10.7584521706        2.0439362777
  H        14.9282430028       12.3949025832        3.6072808278
  H        16.1414646895       13.9139468194        1.8872265337
  H        17.4650620410       14.3032103127        0.0267075968
  H        14.0951157021       10.2048792378        2.6959503164
  C        16.1638584661       11.1742580530        0.0058851499
  C        17.6408373201       12.8873242921       -1.7321056290
  C        15.3166270044       10.2957560958        0.7773484952
  C        16.4886405026       10.7335104488       -1.3117335379
  C        17.2897994440       11.5875057061       -2.1183712028
  H        18.3293964631       13.4397562141       -2.3467309400
  H        14.9267042536        9.4258866094        0.6047854885
  H        16.1056887897        9.8696454020       -1.6520072500
  H        17.5007172740       11.1963209551       -3.1334876358
  C        21.5744445066       15.0992913743       -2.5351259093
  C        20.8732921298       15.9380476556       -1.7153528993
  C        20.3204002799       15.5043265246       -0.4524022015
  C        19.5337004591       16.3685954497        0.4055509835
  C        21.8261116693       13.7727330108       -2.0982573190
  H        21.9092130549       15.3654531147       -3.4934071060
  H        20.5877032301       16.8697455349       -1.9535001174
  H        19.2346790269       17.2231955876       -0.0171490017
  H        22.4000519748       13.0855193693       -2.7761421196
  C        20.7085758646       14.2853568612       -0.0018596322