#     Step Nr.          Time[fs]        Kin.[a.u.]          Temp[K]            Pot.[a.u.]        Cons Qty[a.u.]        UsedTime[s]
       101           10.100000         2.188784279       512.541776100         2.669736842         4.858521121        65.571932639
       102           10.200000         2.211848833       517.942741190         2.646652987         4.858501820         0.075391699
       103           10.300000         2.237180960       523.874697878         2.621299915         4.858480875         0.074787936
       104           10.400000         2.264446819       530.259471238         2.594011785         4.858458604         0.074751466
       105           10.500000         2.293291180       537.013878270         2.565144064         4.858435243         0.074722915
       106           10.600000         2.323341952       544.050787390         2.535069177         4.858411129         0.074626353
       107           10.700000         2.354214897       551.280222606         2.504171627         4.858386524         0.075084465
       108           10.800000         2.385518484       558.610500062         2.472843269         4.858361753         0.074511173
       109           10.900000         2.416858843       565.949388401         2.441478286         4.858337129         0.074668644
       110           11.000000         2.447844724       573.205269558         2.410468255         4.858312980         0.074917072
       111           11.100000         2.478092314       580.288266952         2.380197246         4.858289561         0.074786413
       112           11.200000         2.507226573       587.110558566         2.351038231         4.858264803         0.074792448
       113           11.300000         2.534927474       593.597204788         2.323340801         4.858268276         0.095260739
       114           11.400000         2.560805039       599.656885018         2.297443681         4.858248719         0.074263318
       115           11.500000         2.584578250       605.223794551         2.273652843         4.858231093         0.074436642
       116           11.600000         2.605968504       610.232693229         2.252247014         4.858215518         0.074446267
       117           11.700000         2.624730106       614.626047412         2.233472031         4.858202136         0.074092860
       118           11.800000         2.640653019       618.354673611         2.217538120         4.858191139         0.073990946
       119           11.900000         2.653565336       621.378316473         2.204617314         4.858182650         0.074013882
       120           12.000000         2.663335278       623.666117678         2.194841474         4.858176752         0.074472288
       121           12.100000         2.669872695       625.196967261         2.188300820         4.858173515         0.074159419
       122           12.200000         2.673130022       625.959726628         2.185042925         4.858172946         0.074218850
       123           12.300000         2.673102657       625.953318698         2.185072401         4.858175058         0.074448802
       124           12.400000         2.669828854       625.186701028         2.188350949         4.858179803         0.074065659
       125           12.500000         2.663389029       623.678704310         2.194798078         4.858187106         0.074601500
       126           12.600000         2.653904464       621.457729049         2.204292376         4.858196839         0.074400404
       127           12.700000         2.641535607       618.561346781         2.216673281         4.858208888         0.074315401
       128           12.800000         2.626479809       615.035770848         2.231743257         4.858223066         0.074003944
       129           12.900000         2.608968559       610.935208062         2.249270620         4.858239179         0.074101842
       130           13.000000         2.589264287       606.321111325         2.268992726         4.858257013         0.074286687
       131           13.100000         2.567656846       601.261354382         2.290619470         4.858276316         0.074460675
       132           13.200000         2.544459595       595.829316052         2.313837229         4.858296824         0.074046936
       133           13.300000         2.520005207       590.102897343         2.338313037         4.858318244         0.073951161
       134           13.400000         2.494641271       584.163492002         2.363699064         4.858340335         0.074156500
       135           13.500000         2.468725645       578.094898897         2.389637108         4.858362753         0.073822982
       136           13.600000         2.442621688       571.982205042         2.415763542         4.858385230         0.074020546
       137           13.700000         2.416693493       565.910668714         2.441713960         4.858407453         0.074278009
       138           13.800000         2.391301059       559.964590239         2.467128071         4.858429130         0.074161505
       139           13.900000         2.366795487       554.226185699         2.491654465         4.858449952         0.074379149
       140           14.000000         2.343514405       548.774516920         2.514955255         4.858469660         0.074182650
       141           14.100000         2.321777537       543.684452493         2.536710461         4.858487998         0.074386793
       142           14.200000         2.301882512       539.025687540         2.556622202         4.858504714         0.074064353
       143           14.300000         2.284100972       534.861831863         2.574418618         4.858519590         0.074041188
       144           14.400000         2.268674956       531.249562720         2.589857469         4.858532425         0.074027150
       145           14.500000         2.255813740       528.237886142         2.602729310         4.858543050         0.074223835
       146           14.600000         2.245691111       525.867497045         2.612860211         4.858551321         0.074137342
       147           14.700000         2.238443090       524.170247324         2.620114042         4.858557132         0.074203580
       148           14.800000         2.234166206       523.168740765         2.624394198         4.858560404         0.074152241
       149           14.900000         2.232916220       522.876034898         2.625644868         4.858561088         0.074253379
       150           15.000000         2.234707395       523.295469728         2.623851788         4.858559183         0.074275012
       151           15.100000         2.239512367       524.420637101         2.619042345         4.858554712         0.074174973
       152           15.200000         2.247262530       526.235472115         2.611285206         4.858547736         0.074432428
       153           15.300000         2.257848964       528.714469126         2.600689381         4.858538345         0.074309904
       154           15.400000         2.271123868       531.823018029         2.587402799         4.858526667         0.074194163
       155           15.500000         2.286902554       535.517870811         2.571610293         4.858512847         0.074199164
       156           15.600000         2.304965932       539.747723896         2.553531138         4.858497071         0.074451124
       157           15.700000         2.325063395       544.453893050         2.533416143         4.858479538         0.074448650
       158           15.800000         2.346916127       549.571089090         2.511544368         4.858460495         0.074515654
       159           15.900000         2.370220763       555.028273565         2.488219436         4.858440199         0.074257663
       160           16.000000         2.394653452       560.749611132         2.463765452         4.858418903         0.074320176
       161           16.100000         2.419874139       566.655472213         2.438522751         4.858396891         0.074095293
       162           16.200000         2.445531058       572.663484449         2.412843399         4.858374457         0.074577208
       163           16.300000         2.471265389       578.689624152         2.387086520         4.858351909         0.074326898
       164           16.400000         2.496715938       584.649311250         2.361613589         4.858329527         0.074409315
       165           16.500000         2.521523985       590.458545384         2.336783625         4.858307610         0.074090373
       166           16.600000         2.545338030       596.035016870         2.312948419         4.858286449         0.074001768
       167           16.700000         2.567818375       601.299179199         2.290447964         4.858266338         0.074210949
       168           16.800000         2.588641620       606.175302895         2.269605897         4.858247516         0.074065367
       169           16.900000         2.607504972       610.592483719         2.250725287         4.858230259         0.073288462
       170           17.000000         2.624130282       614.485588400         2.234084517         4.858214799         0.073855823
       171           17.100000         2.638267759       617.796123624         2.219933583         4.858201342         0.074080637
       172           17.200000         2.649699263       620.473008504         2.208490807         4.858190071         0.074078879
       173           17.300000         2.658241255       622.473263936         2.199939871         4.858181126         0.161146645
       174           17.400000         2.663747301       623.762599986         2.194427340         4.858174641         0.073550861
       175           17.500000         2.666110015       624.315870342         2.192060696         4.858170711         0.053118891
       176           17.600000         2.665262620       624.117438299         2.192906774         4.858169394         0.040343504
       177           17.700000         2.661179939       623.161407736         2.196990780         4.858170720         0.040334276
       178           17.800000         2.653878768       621.451711982         2.204295902         4.858174671         0.040032281
       179           17.900000         2.643417869       619.002111125         2.214763338         4.858181207         0.040174006
       180           18.000000         2.629897376       615.836053340         2.228292896         4.858190272         0.040235014
       181           18.100000         2.613457586       611.986391526         2.244744153         4.858201738         0.040159991
       182           18.200000         2.594277296       607.494994129         2.263938197         4.858215492         0.040253528
       183           18.300000         2.572571690       602.412250378         2.285659673         4.858231363         0.040075401
       184           18.400000         2.548589656       596.796441420         2.309659504         4.858249160         0.040447016
       185           18.500000         2.522610738       590.713027589         2.335657916         4.858268654         0.040337140
       186           18.600000         2.494941700       584.233842768         2.363347920         4.858289621         0.040009879
       187           18.700000         2.465912699       577.436198856         2.392399084         4.858311783         0.040458854
       188           18.800000         2.435873233       570.401937363         2.422461643         4.858334876         0.040281951
       189           18.900000         2.405187710       563.216390290         2.453170905         4.858358615         0.040101764
       190           19.000000         2.374230920       555.967321246         2.484151807         4.858382727         0.040174806
       191           19.100000         2.343383415       548.743843341         2.515023468         4.858406882         0.040290445
       192           19.200000         2.313026700       541.635292277         2.545404095         4.858430795         0.039875238
       193           19.300000         2.283538437       534.730104463         2.574915727         4.858454164         0.039946745
       194           19.400000         2.255287777       528.114722722         2.603188926         4.858476703         0.040293434
       195           19.500000         2.228630717       521.872510161         2.629867420         4.858498137         0.040069095
       196           19.600000         2.203905625       516.082701283         2.654612561         4.858518185         0.039943973
       197           19.700000         2.181429003       510.819410811         2.677107605         4.858536608         0.039891055
       198           19.800000         2.161491513       506.150701888         2.697061660         4.858553173         0.039941681
       199           19.900000         2.144354288       502.137723605         2.714213391         4.858567679         0.039924885
       200           20.000000         2.130245681       498.833948628         2.728334258         4.858579939         0.040078812
