#     Step Nr.          Time[fs]        Kin.[a.u.]          Temp[K]            Pot.[a.u.]        Cons Qty[a.u.]        UsedTime[s]
         0            0.000000         0.000000000         0.000000000         0.000000000         0.000000000         0.000000000
         1            0.100000         0.000000000         0.000000000         0.000000000         0.000000000        65.364378819
         2            0.200000         0.000000000         0.000000000         0.000000000         0.000000000         0.091966545
         3            0.300000         0.000000000         0.000000000         0.000000000         0.000000000         0.088801389
         4            0.400000         0.000000000         0.000000000         0.000000000         0.000000000         0.087839342
         5            0.500000         0.000000000         0.000000000         0.000000000         0.000000000         0.086779974
         6            0.600000         0.000000000         0.000000000         0.000000000         0.000000000         0.088127615
         7            0.700000         0.000000000         0.000000000         0.000000000         0.000000000         0.087403157
         8            0.800000         0.000000000         0.000000000         0.000000000         0.000000000         0.086545818
         9            0.900000         0.000000000         0.000000000         0.000000000         0.000000000         0.087130670
        10            1.000000         0.000000000         0.000000000         0.000000000         0.000000000         0.086693036
        11            1.100000         0.000000000         0.000000000         0.000000000         0.000000000         0.078123737
        12            1.200000         0.000000000         0.000000000         0.000000000         0.000000000         0.076483869
        13            1.300000         0.000000000         0.000000000         0.000000000         0.000000000         0.075502223
        14            1.400000         0.000000000         0.000000000         0.000000000         0.000000000         0.075928437
        15            1.500000         0.000000000         0.000000000         0.000000000         0.000000000         0.075822480
        16            1.600000         0.000000000         0.000000000         0.000000000         0.000000000         0.076325457
        17            1.700000         0.000000000         0.000000000         0.000000000         0.000000000         0.075684827
        18            1.800000         0.000000000         0.000000000         0.000000000         0.000000000         0.076474397
        19            1.900000         0.000000000         0.000000000         0.000000000         0.000000000         0.074887285
        20            2.000000         0.000000000         0.000000000         0.000000000         0.000000000         0.074481076
        21            2.100000         0.000000000         0.000000000         0.000000000         0.000000000         0.074517752
        22            2.200000         0.000000000         0.000000000         0.000000000         0.000000000         0.074103818
        23            2.300000         0.000000000         0.000000000         0.000000000         0.000000000         0.074547043
        24            2.400000         0.000000000         0.000000000         0.000000000         0.000000000         0.074995692
        25            2.500000         0.000000000         0.000000000         0.000000000         0.000000000         0.074666235
        26            2.600000         0.000000000         0.000000000         0.000000000         0.000000000         0.075126988
        27            2.700000         0.000000000         0.000000000         0.000000000         0.000000000         0.074451961
        28            2.800000         0.000000000         0.000000000         0.000000000         0.000000000         0.074330229
        29            2.900000         0.000000000         0.000000000         0.000000000         0.000000000         0.074187852
        30            3.000000         0.000000000         0.000000000         0.000000000         0.000000000         0.074396774
        31            3.100000         0.000000000         0.000000000         0.000000000         0.000000000         0.074502326
        32            3.200000         0.000000000         0.000000000         0.000000000         0.000000000         0.074519170
        33            3.300000         0.000000000         0.000000000         0.000000000         0.000000000         0.074560561
        34            3.400000         0.000000000         0.000000000         0.000000000         0.000000000         0.073991063
        35            3.500000         0.000000000         0.000000000         0.000000000         0.000000000         0.074439735
        36            3.600000         0.000000000         0.000000000         0.000000000         0.000000000         0.074286731
        37            3.700000         0.000000000         0.000000000         0.000000000         0.000000000         0.074031498
        38            3.800000         0.000000000         0.000000000         0.000000000         0.000000000         0.074779511
        39            3.900000         0.000000000         0.000000000         0.000000000         0.000000000         0.074328908
        40            4.000000         0.000000000         0.000000000         0.000000000         0.000000000         0.074394106
        41            4.100000         0.000000000         0.000000000         0.000000000         0.000000000         0.074168797
        42            4.200000         0.000000000         0.000000000         0.000000000         0.000000000         0.074192271
        43            4.300000         0.000000000         0.000000000         0.000000000         0.000000000         0.074540126
        44            4.400000         0.000000000         0.000000000         0.000000000         0.000000000         0.074088413
        45            4.500000         0.000000000         0.000000000         0.000000000         0.000000000         0.074758564
        46            4.600000         0.000000000         0.000000000         0.000000000         0.000000000         0.074026177
        47            4.700000         0.000000000         0.000000000         0.000000000         0.000000000         0.074160935
        48            4.800000         0.000000000         0.000000000         0.000000000         0.000000000         0.074250528
        49            4.900000         0.000000000         0.000000000         0.000000000         0.000000000         0.074158127
        50            5.000000         0.000000000         0.000000000         0.000000000         0.000000000         0.074287043
        51            5.100000         0.000000000         0.000000000         0.000000000         0.000000000         0.074115243
        52            5.200000         0.000000000         0.000000000         0.000000000         0.000000000         0.074228699
        53            5.300000         0.000000000         0.000000000         0.000000000         0.000000000         0.073846822
        54            5.400000         0.000000000         0.000000000         0.000000000         0.000000000         0.074574535
        55            5.500000         0.000000000         0.000000000         0.000000000         0.000000000         0.074287890
        56            5.600000         0.000000000         0.000000000         0.000000000         0.000000000         0.074239366
        57            5.700000         0.000000000         0.000000000         0.000000000         0.000000000         0.074517928
        58            5.800000         0.000000000         0.000000000         0.000000000         0.000000000         0.074124422
        59            5.900000         0.000000000         0.000000000         0.000000000         0.000000000         0.074391930
        60            6.000000         0.000000000         0.000000000         0.000000000         0.000000000         0.074029836
        61            6.100000         0.000000000         0.000000000         0.000000000         0.000000000         0.074027895
        62            6.200000         0.000000000         0.000000000         0.000000000         0.000000000         0.074175549
        63            6.300000         0.000000000         0.000000000         0.000000000         0.000000000         0.073751586
        64            6.400000         0.000000000         0.000000000         0.000000000         0.000000000         0.074348452
        65            6.500000         0.000000000         0.000000000         0.000000000         0.000000000         0.073717355
        66            6.600000         0.000000000         0.000000000         0.000000000         0.000000000         0.073818806
        67            6.700000         0.000000000         0.000000000         0.000000000         0.000000000         0.073733714
        68            6.800000         0.000000000         0.000000000         0.000000000         0.000000000         0.073981364
        69            6.900000         0.000000000         0.000000000         0.000000000         0.000000000         0.074049801
        70            7.000000         0.000000000         0.000000000         0.000000000         0.000000000         0.074035737
        71            7.100000         0.000000000         0.000000000         0.000000000         0.000000000         0.074061204
        72            7.200000         0.000000000         0.000000000         0.000000000         0.000000000         0.073618636
        73            7.300000         0.000000000         0.000000000         0.000000000         0.000000000         0.074080566
        74            7.400000         0.000000000         0.000000000         0.000000000         0.000000000         0.073969430
        75            7.500000         0.000000000         0.000000000         0.000000000         0.000000000         0.073847648
        76            7.600000         0.000000000         0.000000000         0.000000000         0.000000000         0.074312265
        77            7.700000         0.000000000         0.000000000         0.000000000         0.000000000         0.073819826
        78            7.800000         0.000000000         0.000000000         0.000000000         0.000000000         0.073507600
        79            7.900000         0.000000000         0.000000000         0.000000000         0.000000000         0.072770787
        80            8.000000         0.000000000         0.000000000         0.000000000         0.000000000         0.073742180
        81            8.100000         0.000000000         0.000000000         0.000000000         0.000000000         0.074096333
        82            8.200000         0.000000000         0.000000000         0.000000000         0.000000000         0.073921636
        83            8.300000         0.000000000         0.000000000         0.000000000         0.000000000         0.074350128
        84            8.400000         0.000000000         0.000000000         0.000000000         0.000000000         0.073761638
        85            8.500000         0.000000000         0.000000000         0.000000000         0.000000000         0.073965776
        86            8.600000         0.000000000         0.000000000         0.000000000         0.000000000         0.073872084
        87            8.700000         0.000000000         0.000000000         0.000000000         0.000000000         0.073976052
        88            8.800000         0.000000000         0.000000000         0.000000000         0.000000000         0.074100913
        89            8.900000         0.000000000         0.000000000         0.000000000         0.000000000         0.073918345
        90            9.000000         0.000000000         0.000000000         0.000000000         0.000000000         0.074112752
        91            9.100000         0.000000000         0.000000000         0.000000000         0.000000000         0.073756417
        92            9.200000         0.000000000         0.000000000         0.000000000         0.000000000         0.074218948
        93            9.300000         0.000000000         0.000000000         0.000000000         0.000000000         0.073886765
        94            9.400000         0.000000000         0.000000000         0.000000000         0.000000000         0.073944617
        95            9.500000         0.000000000         0.000000000         0.000000000         0.000000000         0.074652350
        96            9.600000         0.000000000         0.000000000         0.000000000         0.000000000         0.073843714
        97            9.700000         0.000000000         0.000000000         0.000000000         0.000000000         0.074102413
        98            9.800000         0.000000000         0.000000000         0.000000000         0.000000000         0.073708889
        99            9.900000         0.000000000         0.000000000         0.000000000         0.000000000         0.073760170
       100           10.000000         0.000000000         0.000000000         0.000000000         0.000000000         0.074049285
       101           10.100000         0.000000000         0.000000000         0.000000000         0.000000000         0.073755817
       102           10.200000         0.000000000         0.000000000         0.000000000         0.000000000         0.074273616
       103           10.300000         0.000000000         0.000000000         0.000000000         0.000000000         0.073841641
       104           10.400000         0.000000000         0.000000000         0.000000000         0.000000000         0.073862369
       105           10.500000         0.000000000         0.000000000         0.000000000         0.000000000         0.073850387
       106           10.600000         0.000000000         0.000000000         0.000000000         0.000000000         0.074052575
       107           10.700000         0.000000000         0.000000000         0.000000000         0.000000000         0.074034600
       108           10.800000         0.000000000         0.000000000         0.000000000         0.000000000         0.073700504
       109           10.900000         0.000000000         0.000000000         0.000000000         0.000000000         0.073931875
       110           11.000000         0.000000000         0.000000000         0.000000000         0.000000000         0.073622928
       111           11.100000         0.000000000         0.000000000         0.000000000         0.000000000         0.073983380
       112           11.200000         0.000000000         0.000000000         0.000000000         0.000000000         0.073863287
       113           11.300000         0.000000000         0.000000000         0.000000000         0.000000000         0.073683173
       114           11.400000         0.000000000         0.000000000         0.000000000         0.000000000         0.074124540
       115           11.500000         0.000000000         0.000000000         0.000000000         0.000000000         0.073681681
       116           11.600000         0.000000000         0.000000000         0.000000000         0.000000000         0.073932602
       117           11.700000         0.000000000         0.000000000         0.000000000         0.000000000         0.073589719
       118           11.800000         0.000000000         0.000000000         0.000000000         0.000000000         0.073678618
       119           11.900000         0.000000000         0.000000000         0.000000000         0.000000000         0.073983562
       120           12.000000         0.000000000         0.000000000         0.000000000         0.000000000         0.073610762
       121           12.100000         0.000000000         0.000000000         0.000000000         0.000000000         0.074226147
       122           12.200000         0.000000000         0.000000000         0.000000000         0.000000000         0.073871064
       123           12.300000         0.000000000         0.000000000         0.000000000         0.000000000         0.073732258
       124           12.400000         0.000000000         0.000000000         0.000000000         0.000000000         0.073533903
       125           12.500000         0.000000000         0.000000000         0.000000000         0.000000000         0.073824357
       126           12.600000         0.000000000         0.000000000         0.000000000         0.000000000         0.073795905
       127           12.700000         0.000000000         0.000000000         0.000000000         0.000000000         0.073661589
       128           12.800000         0.000000000         0.000000000         0.000000000         0.000000000         0.074153834
       129           12.900000         0.000000000         0.000000000         0.000000000         0.000000000         0.073560154
       130           13.000000         0.000000000         0.000000000         0.000000000         0.000000000         0.073964570
       131           13.100000         0.000000000         0.000000000         0.000000000         0.000000000         0.073874379
       132           13.200000         0.000000000         0.000000000         0.000000000         0.000000000         0.073883457
       133           13.300000         0.000000000         0.000000000         0.000000000         0.000000000         0.074172053
       134           13.400000         0.000000000         0.000000000         0.000000000         0.000000000         0.073814577
       135           13.500000         0.000000000         0.000000000         0.000000000         0.000000000         0.073945903
       136           13.600000         0.000000000         0.000000000         0.000000000         0.000000000         0.073466103
       137           13.700000         0.000000000         0.000000000         0.000000000         0.000000000         0.073553842
       138           13.800000         0.000000000         0.000000000         0.000000000         0.000000000         0.074013195
       139           13.900000         0.000000000         0.000000000         0.000000000         0.000000000         0.073649180
       140           14.000000         0.000000000         0.000000000         0.000000000         0.000000000         0.074074409
       141           14.100000         0.000000000         0.000000000         0.000000000         0.000000000         0.073656498
       142           14.200000         0.000000000         0.000000000         0.000000000         0.000000000         0.073674577
       143           14.300000         0.000000000         0.000000000         0.000000000         0.000000000         0.073604628
       144           14.400000         0.000000000         0.000000000         0.000000000         0.000000000         0.073951621
       145           14.500000         0.000000000         0.000000000         0.000000000         0.000000000         0.073872948
       146           14.600000         0.000000000         0.000000000         0.000000000         0.000000000         0.073894056
       147           14.700000         0.000000000         0.000000000         0.000000000         0.000000000         0.073956843
       148           14.800000         0.000000000         0.000000000         0.000000000         0.000000000         0.073481628
       149           14.900000         0.000000000         0.000000000         0.000000000         0.000000000         0.073936959
       150           15.000000         0.000000000         0.000000000         0.000000000         0.000000000         0.073804083
       151           15.100000         0.000000000         0.000000000         0.000000000         0.000000000         0.073741744
       152           15.200000         0.000000000         0.000000000         0.000000000         0.000000000         0.074111869
       153           15.300000         0.000000000         0.000000000         0.000000000         0.000000000         0.073707312
       154           15.400000         0.000000000         0.000000000         0.000000000         0.000000000         0.073926420
       155           15.500000         0.000000000         0.000000000         0.000000000         0.000000000         0.073364322
       156           15.600000         0.000000000         0.000000000         0.000000000         0.000000000         0.073360219
       157           15.700000         0.000000000         0.000000000         0.000000000         0.000000000         0.073693124
       158           15.800000         0.000000000         0.000000000         0.000000000         0.000000000         0.073439305
       159           15.900000         0.000000000         0.000000000         0.000000000         0.000000000         0.074032065
       160           16.000000         0.000000000         0.000000000         0.000000000         0.000000000         0.073561025
       161           16.100000         0.000000000         0.000000000         0.000000000         0.000000000         0.072336827
       162           16.200000         0.000000000         0.000000000         0.000000000         0.000000000         0.072736026
       163           16.300000         0.000000000         0.000000000         0.000000000         0.000000000         0.073806914
       164           16.400000         0.000000000         0.000000000         0.000000000         0.000000000         0.073831062
       165           16.500000         0.000000000         0.000000000         0.000000000         0.000000000         0.073638530
       166           16.600000         0.000000000         0.000000000         0.000000000         0.000000000         0.073777765
       167           16.700000         0.000000000         0.000000000         0.000000000         0.000000000         0.073364838
       168           16.800000         0.000000000         0.000000000         0.000000000         0.000000000         0.073713305
       169           16.900000         0.000000000         0.000000000         0.000000000         0.000000000         0.073580108
       170           17.000000         0.000000000         0.000000000         0.000000000         0.000000000         0.073490208
       171           17.100000         0.000000000         0.000000000         0.000000000         0.000000000         0.073943547
       172           17.200000         0.000000000         0.000000000         0.000000000         0.000000000         0.073464382
       173           17.300000         0.000000000         0.000000000         0.000000000         0.000000000         0.073719673
       174           17.400000         0.000000000         0.000000000         0.000000000         0.000000000         0.073531178
       175           17.500000         0.000000000         0.000000000         0.000000000         0.000000000         0.073536898
       176           17.600000         0.000000000         0.000000000         0.000000000         0.000000000         0.073633357
       177           17.700000         0.000000000         0.000000000         0.000000000         0.000000000         0.073261109
       178           17.800000         0.000000000         0.000000000         0.000000000         0.000000000         0.073920598
       179           17.900000         0.000000000         0.000000000         0.000000000         0.000000000         0.050762042
       180           18.000000         0.000000000         0.000000000         0.000000000         0.000000000         0.039890332
       181           18.100000         0.000000000         0.000000000         0.000000000         0.000000000         0.040076849
       182           18.200000         0.000000000         0.000000000         0.000000000         0.000000000         0.040070659
       183           18.300000         0.000000000         0.000000000         0.000000000         0.000000000         0.051391254
       184           18.400000         0.000000000         0.000000000         0.000000000         0.000000000         0.073397277
       185           18.500000         0.000000000         0.000000000         0.000000000         0.000000000         0.052877855
       186           18.600000         0.000000000         0.000000000         0.000000000         0.000000000         0.039849026
       187           18.700000         0.000000000         0.000000000         0.000000000         0.000000000         0.040095583
       188           18.800000         0.000000000         0.000000000         0.000000000         0.000000000         0.040007212
       189           18.900000         0.000000000         0.000000000         0.000000000         0.000000000         0.040007907
       190           19.000000         0.000000000         0.000000000         0.000000000         0.000000000         0.040217994
       191           19.100000         0.000000000         0.000000000         0.000000000         0.000000000         0.061133978
       192           19.200000         0.000000000         0.000000000         0.000000000         0.000000000         0.046652198
       193           19.300000         0.000000000         0.000000000         0.000000000         0.000000000         0.039800684
       194           19.400000         0.000000000         0.000000000         0.000000000         0.000000000         0.040000575
       195           19.500000         0.000000000         0.000000000         0.000000000         0.000000000         0.040090312
       196           19.600000         0.000000000         0.000000000         0.000000000         0.000000000         0.039987750
       197           19.700000         0.000000000         0.000000000         0.000000000         0.000000000         0.040211914
       198           19.800000         0.000000000         0.000000000         0.000000000         0.000000000         0.039825591
       199           19.900000         0.000000000         0.000000000         0.000000000         0.000000000         0.039841143
       200           20.000000         0.000000000         0.000000000         0.000000000         0.000000000         0.040017138
