 DBCSR| Multiplication driver                                               XSMM
 DBCSR| Multrec recursion limit                                              512
 DBCSR| Multiplication stack size                                           1000
 DBCSR| Maximum elements for images                                    UNLIMITED
 DBCSR| Randmat seed                                                    12341313
 DBCSR| Multiplication size stacks                                             3


  **** **** ******  **  PROGRAM STARTED AT               2021-02-12 16:43:36.202
 ***** ** ***  *** **   PROGRAM STARTED ON               bulstake.phys.ucl.ac.uk
 **    ****   ******    PROGRAM STARTED BY                             sgiannini
 ***** **    ** ** **   PROGRAM PROCESS ID                                  3527
  **** **  *******  **  PROGRAM STARTED IN /scratch/sgiannini/FOB-SH-REGTESTS_/3
                                           3-XXX_code_extension_V2/run-fssh-MTS1
                                           _FROZEN_H

 CP2K| version string:                    CP2K version 4.0 (Development Version)
 CP2K| source code revision number:                                  git:cfe3005
 CP2K| cp2kflags: libint fftw3 libxc quip smm_dnn smm libxsmm libderiv_max_am1=5
 CP2K|             libint_max_am=6
 CP2K| is freely available from                            https://www.cp2k.org/
 CP2K| Program compiled at                          Fri 12 Feb 16:41:38 GMT 2021
 CP2K| Program compiled on                               bulstake.phys.ucl.ac.uk
 CP2K| Program compiled for                                                local
 CP2K| Data directory path           /scratch/sgiannini/flavoured-cptk/cp2k/data
 CP2K| Input file name                                                   run.inp

 GLOBAL| Force Environment number                                              1
 GLOBAL| Basis set file name                                           POTENTIAL
 GLOBAL| MM Potential file name                                     MM_POTENTIAL
 GLOBAL| Coordinate file name                                       pos-init.xyz
 GLOBAL| Force Environment number                                              2
 GLOBAL| Basis set file name                                           POTENTIAL
 GLOBAL| MM Potential file name                                     MM_POTENTIAL
 GLOBAL| Coordinate file name                                       pos-init.xyz
 GLOBAL| Force Environment number                                              3
 GLOBAL| Basis set file name                                           POTENTIAL
 GLOBAL| MM Potential file name                                     MM_POTENTIAL
 GLOBAL| Coordinate file name                                       pos-init.xyz
 GLOBAL| Method name                                                        CP2K
 GLOBAL| Project name                                                        run
 GLOBAL| Preferred FFT library                                             FFTW3
 GLOBAL| Preferred diagonalization lib.                                       SL
 GLOBAL| Run type                                                             MD
 GLOBAL| All-to-all communication in single precision                          F
 GLOBAL| FFTs using library dependent lengths                                  F
 GLOBAL| Global print level                                                  LOW
 GLOBAL| Total number of message passing processes                             1
 GLOBAL| Number of threads for this process                                    1
 GLOBAL| This output is from process                                           0
 GLOBAL| CPU model name :  Intel(R) Xeon(R) CPU E5-2687W v4 @ 3.00GHz

 MEMORY| system memory details [Kb]
 MEMORY|                        rank 0           min           max       average
 MEMORY| MemTotal             65894336      65894336      65894336      65894336
 MEMORY| MemFree               3395612       3395612       3395612       3395612
 MEMORY| Buffers                  9680          9680          9680          9680
 MEMORY| Cached               50526072      50526072      50526072      50526072
 MEMORY| Slab                  2053704       2053704       2053704       2053704
 MEMORY| SReclaimable          1717764       1717764       1717764       1717764
 MEMORY| MemLikelyFree        55649128      55649128      55649128      55649128

 TOTAL NUMBER OF FORCE EVALS           3
 NOTE:n_subforce_eval           2
 DECOMP =  T
 DECOMP =  T

 MD| Molecular Dynamics Protocol 
 MD| Ensemble Type                                                           NVE
 MD| Number of Time Steps                                                    200
 MD| Time Step [fs]                                                         0.10
 MD| Temperature [K]                                                      400.00
 MD| Temperature tolerance [K]                                              0.00
 MD| Print MD information every                                        1 step(s)
 MD| File type     Print frequency[steps]                             File names
 MD| Coordinates          200                                      run-pos-1.xyz
 MD| Velocities             1                                      run-vel-1.xyz
 MD| Energies               1                                         run-1.ener
 MD| Dump                 200                                      run-1.restart

 ROT| Rotational Analysis Info 
 ROT| Principal axes and moments of inertia in atomic units:
 ROT|                                1                 2                 3
 ROT| EIGENVALUES            0.319196005E+10   0.583971964E+10   0.882037602E+10
 ROT|      X                     0.997631408       0.066105605       0.019016393
 ROT|      Y                     0.066118536      -0.997811774      -0.000051363
 ROT|      Z                    -0.018971385      -0.001308578       0.999819171
 ROT| Numer of Rotovibrational vectors:     6

 Calculation of degrees of freedom
                                                      Number of atoms:       900
                                 Number of Intramolecular constraints:         0
                                 Number of Intermolecular constraints:         0
                                  Invariants(translation + rotations):         3
                                                   Degrees of freedom:      2697


 Restraints Information
                                  Number of Intramolecular restraints:         0
                                  Number of Intermolecular restraints:         0

 *** WARNING in motion/thermostat/thermostat_methods.F:280 :: Thermostat ***
 *** for Particles has been defined but the ensemble provided does not   ***
 *** support thermostat for Particles! Ignoring thermostat input.        ***

 ************************** Velocities initialization **************************
 Initial Temperature                                                    564.84 K
 COM velocity:           -0.000000000004     -0.000000000000      0.000000000001
 *******************************************************************************

 FIRST CALL: force_env_calc_energy_force
 RESTART_KEY F
 FOB-SH: ALLOCATION OF S MATRICES
 Lookup table files:
 ../topologies/S_psigma.txt                                                      
 ../topologies/S_ppi.txt                                                         
 ../topologies/S_psigma_carbon_sulfur.dat                                        
 ../topologies/S_ppi_carbon_sulfur.dat                                           
 ../topologies/S_psigma_sulfur_sulfur.dat                                        
 ../topologies/S_ppi_sulfur_sulfur.dat                                           
 C-S psigma nrows     1166666
 C-S ppi nrows     1166666
 S-S psigma nrows     1166666
 S-S ppi nrows     1166666
 FOBSH| ACTIVE STATE =            3

 ENERGY| Total FORCE_EVAL ( MIXED ) energy (a.u.):             0.000000000000000

 STEP NUMBER                  =            0
 CPU TIME [s]                 =    0.0000000000000000        0.0000000000000000     

 MD_ENERGIES| Initialization proceeding


 ******************************** GO CP2K GO! **********************************
 INITIAL POTENTIAL ENERGY[hartree]     =                      0.000000000000E+00
 INITIAL KINETIC ENERGY[hartree]       =                      0.000000000000E+00
 INITIAL TEMPERATURE[K]                =                                   0.000
 INITIAL VOLUME[bohr^3]                =                      0.580604601118E+05
 INITIAL CELL LNTHS[bohr]   =      0.7651501E+02   0.5624770E+02   0.1634991E+02
 INITIAL CELL ANGLS[deg]    =      0.9000000E+02   0.1244000E+03   0.9000000E+02
 ******************************** GO CP2K GO! **********************************
 FOBSH| *** OFF-DIAGONAL GRADIENT CALCULATION
 FOBSH| Put former active state           3 in new active state           3
 FOBSH| ACTIVE STATE =            3

 ENERGY| Total FORCE_EVAL ( MIXED ) energy (a.u.):             0.000000000000000

 FOBSH| CASE1: no hop and no trivial crossing
 ENTER integrator.F
 STEP NUMBER                  =            1
 CPU TIME [s]                 =    65.364378819242120        65.364378819242120     

 *******************************************************************************
 ENSEMBLE TYPE                =                                              NVE
 STEP NUMBER                  =                                                1
 TIME [fs]                    =                                         0.100000
 CONSERVED QUANTITY [hartree] =                               0.000000000000E+00

                                              INSTANTANEOUS             AVERAGES
 CPU TIME [s]                 =                       65.36                65.36
 ENERGY DRIFT PER ATOM [K]    =          0.000000000000E+00   0.000000000000E+00
 POTENTIAL ENERGY[hartree]    =          0.000000000000E+00   0.000000000000E+00
 KINETIC ENERGY [hartree]     =          0.000000000000E+00   0.000000000000E+00
 TEMPERATURE [K]              =                       0.000                0.000
 *******************************************************************************

 FOBSH| *** OFF-DIAGONAL GRADIENT CALCULATION
 FOBSH| Put former active state           3 in new active state           3
 FOBSH| ACTIVE STATE =            3

 ENERGY| Total FORCE_EVAL ( MIXED ) energy (a.u.):             0.000000000000000

 FOBSH| CASE1: no hop and no trivial crossing
 ENTER integrator.F
 STEP NUMBER                  =            2
 CPU TIME [s]                 =    9.1966545209288597E-002   32.728172682225704     

 *******************************************************************************
 ENSEMBLE TYPE                =                                              NVE
 STEP NUMBER                  =                                                2
 TIME [fs]                    =                                         0.200000
 CONSERVED QUANTITY [hartree] =                               0.000000000000E+00

                                              INSTANTANEOUS             AVERAGES
 CPU TIME [s]                 =                        0.09                32.73
 ENERGY DRIFT PER ATOM [K]    =          0.000000000000E+00   0.000000000000E+00
 POTENTIAL ENERGY[hartree]    =          0.000000000000E+00   0.000000000000E+00
 KINETIC ENERGY [hartree]     =          0.000000000000E+00   0.000000000000E+00
 TEMPERATURE [K]              =                       0.000                0.000
 *******************************************************************************

 FOBSH| *** OFF-DIAGONAL GRADIENT CALCULATION
 FOBSH| Put former active state           3 in new active state           3
 FOBSH| ACTIVE STATE =            3

 ENERGY| Total FORCE_EVAL ( MIXED ) energy (a.u.):             0.000000000000000

 FOBSH| CASE1: no hop and no trivial crossing
 ENTER integrator.F
 STEP NUMBER                  =            3
 CPU TIME [s]                 =    8.8801388628780842E-002   21.848382251026727     

 *******************************************************************************
 ENSEMBLE TYPE                =                                              NVE
 STEP NUMBER                  =                                                3
 TIME [fs]                    =                                         0.300000
 CONSERVED QUANTITY [hartree] =                               0.000000000000E+00

                                              INSTANTANEOUS             AVERAGES
 CPU TIME [s]                 =                        0.09                21.85
 ENERGY DRIFT PER ATOM [K]    =          0.000000000000E+00   0.000000000000E+00
 POTENTIAL ENERGY[hartree]    =          0.000000000000E+00   0.000000000000E+00
 KINETIC ENERGY [hartree]     =          0.000000000000E+00   0.000000000000E+00
 TEMPERATURE [K]              =                       0.000                0.000
 *******************************************************************************

 FOBSH| *** OFF-DIAGONAL GRADIENT CALCULATION
 FOBSH| Put former active state           3 in new active state           3
 FOBSH| ACTIVE STATE =            3

 ENERGY| Total FORCE_EVAL ( MIXED ) energy (a.u.):             0.000000000000000

 FOBSH| CASE1: no hop and no trivial crossing
 ENTER integrator.F
 STEP NUMBER                  =            4
 CPU TIME [s]                 =    8.7839341722428799E-002   16.408246523700655     

 *******************************************************************************
 ENSEMBLE TYPE                =                                              NVE
 STEP NUMBER                  =                                                4
 TIME [fs]                    =                                         0.400000
 CONSERVED QUANTITY [hartree] =                               0.000000000000E+00

                                              INSTANTANEOUS             AVERAGES
 CPU TIME [s]                 =                        0.09                16.41
 ENERGY DRIFT PER ATOM [K]    =          0.000000000000E+00   0.000000000000E+00
 POTENTIAL ENERGY[hartree]    =          0.000000000000E+00   0.000000000000E+00
 KINETIC ENERGY [hartree]     =          0.000000000000E+00   0.000000000000E+00
 TEMPERATURE [K]              =                       0.000                0.000
 *******************************************************************************

 FOBSH| *** OFF-DIAGONAL GRADIENT CALCULATION
 FOBSH| Put former active state           3 in new active state           3
 FOBSH| ACTIVE STATE =            3

 ENERGY| Total FORCE_EVAL ( MIXED ) energy (a.u.):             0.000000000000000

 FOBSH| CASE1: no hop and no trivial crossing
 ENTER integrator.F
 STEP NUMBER                  =            5
 CPU TIME [s]                 =    8.6779974400997162E-002   13.143953213840724     

 *******************************************************************************
 ENSEMBLE TYPE                =                                              NVE
 STEP NUMBER                  =                                                5
 TIME [fs]                    =                                         0.500000
 CONSERVED QUANTITY [hartree] =                               0.000000000000E+00

                                              INSTANTANEOUS             AVERAGES
 CPU TIME [s]                 =                        0.09                13.14
 ENERGY DRIFT PER ATOM [K]    =          0.000000000000E+00   0.000000000000E+00
 POTENTIAL ENERGY[hartree]    =          0.000000000000E+00   0.000000000000E+00
 KINETIC ENERGY [hartree]     =          0.000000000000E+00   0.000000000000E+00
 TEMPERATURE [K]              =                       0.000                0.000
 *******************************************************************************

 FOBSH| *** OFF-DIAGONAL GRADIENT CALCULATION
 FOBSH| Put former active state           3 in new active state           3
 FOBSH| ACTIVE STATE =            3

 ENERGY| Total FORCE_EVAL ( MIXED ) energy (a.u.):             0.000000000000000

 FOBSH| CASE1: no hop and no trivial crossing
 ENTER integrator.F
 STEP NUMBER                  =            6
 CPU TIME [s]                 =    8.8127614930272102E-002   10.967982280688981     

 *******************************************************************************
 ENSEMBLE TYPE                =                                              NVE
 STEP NUMBER                  =                                                6
 TIME [fs]                    =                                         0.600000
 CONSERVED QUANTITY [hartree] =                               0.000000000000E+00

                                              INSTANTANEOUS             AVERAGES
 CPU TIME [s]                 =                        0.09                10.97
 ENERGY DRIFT PER ATOM [K]    =          0.000000000000E+00   0.000000000000E+00
 POTENTIAL ENERGY[hartree]    =          0.000000000000E+00   0.000000000000E+00
 KINETIC ENERGY [hartree]     =          0.000000000000E+00   0.000000000000E+00
 TEMPERATURE [K]              =                       0.000                0.000
 *******************************************************************************

 FOBSH| *** OFF-DIAGONAL GRADIENT CALCULATION
 FOBSH| Put former active state           3 in new active state           3
 FOBSH| ACTIVE STATE =            3

 ENERGY| Total FORCE_EVAL ( MIXED ) energy (a.u.):             0.000000000000000

 FOBSH| CASE1: no hop and no trivial crossing
 ENTER integrator.F
 STEP NUMBER                  =            7
 CPU TIME [s]                 =    8.7403156794607639E-002   9.4136138344183564     

 *******************************************************************************
 ENSEMBLE TYPE                =                                              NVE
 STEP NUMBER                  =                                                7
 TIME [fs]                    =                                         0.700000
 CONSERVED QUANTITY [hartree] =                               0.000000000000E+00

                                              INSTANTANEOUS             AVERAGES
 CPU TIME [s]                 =                        0.09                 9.41
 ENERGY DRIFT PER ATOM [K]    =          0.000000000000E+00   0.000000000000E+00
 POTENTIAL ENERGY[hartree]    =          0.000000000000E+00   0.000000000000E+00
 KINETIC ENERGY [hartree]     =          0.000000000000E+00   0.000000000000E+00
 TEMPERATURE [K]              =                       0.000                0.000
 *******************************************************************************

 FOBSH| *** OFF-DIAGONAL GRADIENT CALCULATION
 FOBSH| Put former active state           3 in new active state           3
 FOBSH| ACTIVE STATE =            3

 ENERGY| Total FORCE_EVAL ( MIXED ) energy (a.u.):             0.000000000000000

 FOBSH| CASE1: no hop and no trivial crossing
 ENTER integrator.F
 STEP NUMBER                  =            8
 CPU TIME [s]                 =    8.6545817553997040E-002   8.2477303323103115     

 *******************************************************************************
 ENSEMBLE TYPE                =                                              NVE
 STEP NUMBER                  =                                                8
 TIME [fs]                    =                                         0.800000
 CONSERVED QUANTITY [hartree] =                               0.000000000000E+00

                                              INSTANTANEOUS             AVERAGES
 CPU TIME [s]                 =                        0.09                 8.25
 ENERGY DRIFT PER ATOM [K]    =          0.000000000000E+00   0.000000000000E+00
 POTENTIAL ENERGY[hartree]    =          0.000000000000E+00   0.000000000000E+00
 KINETIC ENERGY [hartree]     =          0.000000000000E+00   0.000000000000E+00
 TEMPERATURE [K]              =                       0.000                0.000
 *******************************************************************************

 FOBSH| *** OFF-DIAGONAL GRADIENT CALCULATION
 FOBSH| Put former active state           3 in new active state           3
 FOBSH| ACTIVE STATE =            3

 ENERGY| Total FORCE_EVAL ( MIXED ) energy (a.u.):             0.000000000000000

 FOBSH| CASE1: no hop and no trivial crossing
 ENTER integrator.F
 STEP NUMBER                  =            9
 CPU TIME [s]                 =    8.7130669504404068E-002   7.3409970364429880     

 *******************************************************************************
 ENSEMBLE TYPE                =                                              NVE
 STEP NUMBER                  =                                                9
 TIME [fs]                    =                                         0.900000
 CONSERVED QUANTITY [hartree] =                               0.000000000000E+00

                                              INSTANTANEOUS             AVERAGES
 CPU TIME [s]                 =                        0.09                 7.34
 ENERGY DRIFT PER ATOM [K]    =          0.000000000000E+00   0.000000000000E+00
 POTENTIAL ENERGY[hartree]    =          0.000000000000E+00   0.000000000000E+00
 KINETIC ENERGY [hartree]     =          0.000000000000E+00   0.000000000000E+00
 TEMPERATURE [K]              =                       0.000                0.000
 *******************************************************************************

 FOBSH| *** OFF-DIAGONAL GRADIENT CALCULATION
 FOBSH| Put former active state           3 in new active state           3
 FOBSH| ACTIVE STATE =            3

 ENERGY| Total FORCE_EVAL ( MIXED ) energy (a.u.):             0.000000000000000

 FOBSH| CASE1: no hop and no trivial crossing
 ENTER integrator.F
 STEP NUMBER                  =           10
 CPU TIME [s]                 =    8.6693036369979382E-002   6.6155666364356875     

 *******************************************************************************
 ENSEMBLE TYPE                =                                              NVE
 STEP NUMBER                  =                                               10
 TIME [fs]                    =                                         1.000000
 CONSERVED QUANTITY [hartree] =                               0.000000000000E+00

                                              INSTANTANEOUS             AVERAGES
 CPU TIME [s]                 =                        0.09                 6.62
 ENERGY DRIFT PER ATOM [K]    =          0.000000000000E+00   0.000000000000E+00
 POTENTIAL ENERGY[hartree]    =          0.000000000000E+00   0.000000000000E+00
 KINETIC ENERGY [hartree]     =          0.000000000000E+00   0.000000000000E+00
 TEMPERATURE [K]              =                       0.000                0.000
 *******************************************************************************

 FOBSH| *** OFF-DIAGONAL GRADIENT CALCULATION
 FOBSH| Put former active state           3 in new active state           3
 FOBSH| ACTIVE STATE =            3

 ENERGY| Total FORCE_EVAL ( MIXED ) energy (a.u.):             0.000000000000000

 FOBSH| CASE1: no hop and no trivial crossing
 ENTER integrator.F
 STEP NUMBER                  =           11
 CPU TIME [s]                 =    7.8123737126588821E-002   6.0212536455894057     

 *******************************************************************************
 ENSEMBLE TYPE                =                                              NVE
 STEP NUMBER                  =                                               11
 TIME [fs]                    =                                         1.100000
 CONSERVED QUANTITY [hartree] =                               0.000000000000E+00

                                              INSTANTANEOUS             AVERAGES
 CPU TIME [s]                 =                        0.08                 6.02
 ENERGY DRIFT PER ATOM [K]    =          0.000000000000E+00   0.000000000000E+00
 POTENTIAL ENERGY[hartree]    =          0.000000000000E+00   0.000000000000E+00
 KINETIC ENERGY [hartree]     =          0.000000000000E+00   0.000000000000E+00
 TEMPERATURE [K]              =                       0.000                0.000
 *******************************************************************************

 FOBSH| *** OFF-DIAGONAL GRADIENT CALCULATION
 FOBSH| Put former active state           3 in new active state           3
 FOBSH| ACTIVE STATE =            3

 ENERGY| Total FORCE_EVAL ( MIXED ) energy (a.u.):             0.000000000000000

 FOBSH| CASE1: no hop and no trivial crossing
 ENTER integrator.F
 STEP NUMBER                  =           12
 CPU TIME [s]                 =    7.6483868993818760E-002   5.5258561642064397     

 *******************************************************************************
 ENSEMBLE TYPE                =                                              NVE
 STEP NUMBER                  =                                               12
 TIME [fs]                    =                                         1.200000
 CONSERVED QUANTITY [hartree] =                               0.000000000000E+00

                                              INSTANTANEOUS             AVERAGES
 CPU TIME [s]                 =                        0.08                 5.53
 ENERGY DRIFT PER ATOM [K]    =          0.000000000000E+00   0.000000000000E+00
 POTENTIAL ENERGY[hartree]    =          0.000000000000E+00   0.000000000000E+00
 KINETIC ENERGY [hartree]     =          0.000000000000E+00   0.000000000000E+00
 TEMPERATURE [K]              =                       0.000                0.000
 *******************************************************************************

 FOBSH| *** OFF-DIAGONAL GRADIENT CALCULATION
 FOBSH| Put former active state           3 in new active state           3
 FOBSH| ACTIVE STATE =            3

 ENERGY| Total FORCE_EVAL ( MIXED ) energy (a.u.):             0.000000000000000

 FOBSH| CASE1: no hop and no trivial crossing
 ENTER integrator.F
 STEP NUMBER                  =           13
 CPU TIME [s]                 =    7.5502223335206509E-002   5.1065981687548074     

 *******************************************************************************
 ENSEMBLE TYPE                =                                              NVE
 STEP NUMBER                  =                                               13
 TIME [fs]                    =                                         1.300000
 CONSERVED QUANTITY [hartree] =                               0.000000000000E+00

                                              INSTANTANEOUS             AVERAGES
 CPU TIME [s]                 =                        0.08                 5.11
 ENERGY DRIFT PER ATOM [K]    =          0.000000000000E+00   0.000000000000E+00
 POTENTIAL ENERGY[hartree]    =          0.000000000000E+00   0.000000000000E+00
 KINETIC ENERGY [hartree]     =          0.000000000000E+00   0.000000000000E+00
 TEMPERATURE [K]              =                       0.000                0.000
 *******************************************************************************

 FOBSH| *** OFF-DIAGONAL GRADIENT CALCULATION
 FOBSH| Put former active state           3 in new active state           3
 FOBSH| ACTIVE STATE =            3

 ENERGY| Total FORCE_EVAL ( MIXED ) energy (a.u.):             0.000000000000000

 FOBSH| CASE1: no hop and no trivial crossing
 ENTER integrator.F
 STEP NUMBER                  =           14
 CPU TIME [s]                 =    7.5928436592221260E-002   4.7472646164574792     

 *******************************************************************************
 ENSEMBLE TYPE                =                                              NVE
 STEP NUMBER                  =                                               14
 TIME [fs]                    =                                         1.400000
 CONSERVED QUANTITY [hartree] =                               0.000000000000E+00

                                              INSTANTANEOUS             AVERAGES
 CPU TIME [s]                 =                        0.08                 4.75
 ENERGY DRIFT PER ATOM [K]    =          0.000000000000E+00   0.000000000000E+00
 POTENTIAL ENERGY[hartree]    =          0.000000000000E+00   0.000000000000E+00
 KINETIC ENERGY [hartree]     =          0.000000000000E+00   0.000000000000E+00
 TEMPERATURE [K]              =                       0.000                0.000
 *******************************************************************************

 FOBSH| *** OFF-DIAGONAL GRADIENT CALCULATION
 FOBSH| Put former active state           3 in new active state           3
 FOBSH| ACTIVE STATE =            3

 ENERGY| Total FORCE_EVAL ( MIXED ) energy (a.u.):             0.000000000000000

 FOBSH| CASE1: no hop and no trivial crossing
 ENTER integrator.F
 STEP NUMBER                  =           15
 CPU TIME [s]                 =    7.5822480022907257E-002   4.4358351406951746     

 *******************************************************************************
 ENSEMBLE TYPE                =                                              NVE
 STEP NUMBER                  =                                               15
 TIME [fs]                    =                                         1.500000
 CONSERVED QUANTITY [hartree] =                               0.000000000000E+00

                                              INSTANTANEOUS             AVERAGES
 CPU TIME [s]                 =                        0.08                 4.44
 ENERGY DRIFT PER ATOM [K]    =          0.000000000000E+00   0.000000000000E+00
 POTENTIAL ENERGY[hartree]    =          0.000000000000E+00   0.000000000000E+00
 KINETIC ENERGY [hartree]     =          0.000000000000E+00   0.000000000000E+00
 TEMPERATURE [K]              =                       0.000                0.000
 *******************************************************************************

 FOBSH| *** OFF-DIAGONAL GRADIENT CALCULATION
 FOBSH| Put former active state           3 in new active state           3
 FOBSH| ACTIVE STATE =            3

 ENERGY| Total FORCE_EVAL ( MIXED ) energy (a.u.):             0.000000000000000

 FOBSH| CASE1: no hop and no trivial crossing
 ENTER integrator.F
 STEP NUMBER                  =           16
 CPU TIME [s]                 =    7.6325456611812115E-002   4.1633657854399644     

 *******************************************************************************
 ENSEMBLE TYPE                =                                              NVE
 STEP NUMBER                  =                                               16
 TIME [fs]                    =                                         1.600000
 CONSERVED QUANTITY [hartree] =                               0.000000000000E+00

                                              INSTANTANEOUS             AVERAGES
 CPU TIME [s]                 =                        0.08                 4.16
 ENERGY DRIFT PER ATOM [K]    =          0.000000000000E+00   0.000000000000E+00
 POTENTIAL ENERGY[hartree]    =          0.000000000000E+00   0.000000000000E+00
 KINETIC ENERGY [hartree]     =          0.000000000000E+00   0.000000000000E+00
 TEMPERATURE [K]              =                       0.000                0.000
 *******************************************************************************

 FOBSH| *** OFF-DIAGONAL GRADIENT CALCULATION
 FOBSH| Put former active state           3 in new active state           3
 FOBSH| ACTIVE STATE =            3

 ENERGY| Total FORCE_EVAL ( MIXED ) energy (a.u.):             0.000000000000000

 FOBSH| CASE1: no hop and no trivial crossing
 ENTER integrator.F
 STEP NUMBER                  =           17
 CPU TIME [s]                 =    7.5684826821088791E-002   3.9229139643447364     

 *******************************************************************************
 ENSEMBLE TYPE                =                                              NVE
 STEP NUMBER                  =                                               17
 TIME [fs]                    =                                         1.700000
 CONSERVED QUANTITY [hartree] =                               0.000000000000E+00

                                              INSTANTANEOUS             AVERAGES
 CPU TIME [s]                 =                        0.08                 3.92
 ENERGY DRIFT PER ATOM [K]    =          0.000000000000E+00   0.000000000000E+00
 POTENTIAL ENERGY[hartree]    =          0.000000000000E+00   0.000000000000E+00
 KINETIC ENERGY [hartree]     =          0.000000000000E+00   0.000000000000E+00
 TEMPERATURE [K]              =                       0.000                0.000
 *******************************************************************************

 FOBSH| *** OFF-DIAGONAL GRADIENT CALCULATION
 FOBSH| Put former active state           3 in new active state           3
 FOBSH| ACTIVE STATE =            3

 ENERGY| Total FORCE_EVAL ( MIXED ) energy (a.u.):             0.000000000000000

 FOBSH| CASE1: no hop and no trivial crossing
 ENTER integrator.F
 STEP NUMBER                  =           18
 CPU TIME [s]                 =    7.6474396511912346E-002   3.7092228772429126     

 *******************************************************************************
 ENSEMBLE TYPE                =                                              NVE
 STEP NUMBER                  =                                               18
 TIME [fs]                    =                                         1.800000
 CONSERVED QUANTITY [hartree] =                               0.000000000000E+00

                                              INSTANTANEOUS             AVERAGES
 CPU TIME [s]                 =                        0.08                 3.71
 ENERGY DRIFT PER ATOM [K]    =          0.000000000000E+00   0.000000000000E+00
 POTENTIAL ENERGY[hartree]    =          0.000000000000E+00   0.000000000000E+00
 KINETIC ENERGY [hartree]     =          0.000000000000E+00   0.000000000000E+00
 TEMPERATURE [K]              =                       0.000                0.000
 *******************************************************************************

 FOBSH| *** OFF-DIAGONAL GRADIENT CALCULATION
 FOBSH| Put former active state           3 in new active state           3
 FOBSH| ACTIVE STATE =            3

 ENERGY| Total FORCE_EVAL ( MIXED ) energy (a.u.):             0.000000000000000

 FOBSH| CASE1: no hop and no trivial crossing
 ENTER integrator.F
 STEP NUMBER                  =           19
 CPU TIME [s]                 =    7.4887285009026527E-002   3.5179420565990238     

 *******************************************************************************
 ENSEMBLE TYPE                =                                              NVE
 STEP NUMBER                  =                                               19
 TIME [fs]                    =                                         1.900000
 CONSERVED QUANTITY [hartree] =                               0.000000000000E+00

                                              INSTANTANEOUS             AVERAGES
 CPU TIME [s]                 =                        0.07                 3.52
 ENERGY DRIFT PER ATOM [K]    =          0.000000000000E+00   0.000000000000E+00
 POTENTIAL ENERGY[hartree]    =          0.000000000000E+00   0.000000000000E+00
 KINETIC ENERGY [hartree]     =          0.000000000000E+00   0.000000000000E+00
 TEMPERATURE [K]              =                       0.000                0.000
 *******************************************************************************

 FOBSH| *** OFF-DIAGONAL GRADIENT CALCULATION
 FOBSH| Put former active state           3 in new active state           3
 FOBSH| ACTIVE STATE =            3

 ENERGY| Total FORCE_EVAL ( MIXED ) energy (a.u.):             0.000000000000000

 FOBSH| CASE1: no hop and no trivial crossing
 ENTER integrator.F
 STEP NUMBER                  =           20
 CPU TIME [s]                 =    7.4481075629591942E-002   3.3457690075505528     

 *******************************************************************************
 ENSEMBLE TYPE                =                                              NVE
 STEP NUMBER                  =                                               20
 TIME [fs]                    =                                         2.000000
 CONSERVED QUANTITY [hartree] =                               0.000000000000E+00

                                              INSTANTANEOUS             AVERAGES
 CPU TIME [s]                 =                        0.07                 3.35
 ENERGY DRIFT PER ATOM [K]    =          0.000000000000E+00   0.000000000000E+00
 POTENTIAL ENERGY[hartree]    =          0.000000000000E+00   0.000000000000E+00
 KINETIC ENERGY [hartree]     =          0.000000000000E+00   0.000000000000E+00
 TEMPERATURE [K]              =                       0.000                0.000
 *******************************************************************************

 FOBSH| *** OFF-DIAGONAL GRADIENT CALCULATION
 FOBSH| Put former active state           3 in new active state           3
 FOBSH| ACTIVE STATE =            3

 ENERGY| Total FORCE_EVAL ( MIXED ) energy (a.u.):             0.000000000000000

 FOBSH| CASE1: no hop and no trivial crossing
 ENTER integrator.F
 STEP NUMBER                  =           21
 CPU TIME [s]                 =    7.4517752043902874E-002   3.1899951382407119     

 *******************************************************************************
 ENSEMBLE TYPE                =                                              NVE
 STEP NUMBER                  =                                               21
 TIME [fs]                    =                                         2.100000
 CONSERVED QUANTITY [hartree] =                               0.000000000000E+00

                                              INSTANTANEOUS             AVERAGES
 CPU TIME [s]                 =                        0.07                 3.19
 ENERGY DRIFT PER ATOM [K]    =          0.000000000000E+00   0.000000000000E+00
 POTENTIAL ENERGY[hartree]    =          0.000000000000E+00   0.000000000000E+00
 KINETIC ENERGY [hartree]     =          0.000000000000E+00   0.000000000000E+00
 TEMPERATURE [K]              =                       0.000                0.000
 *******************************************************************************

 FOBSH| *** OFF-DIAGONAL GRADIENT CALCULATION
 FOBSH| Put former active state           3 in new active state           3
 FOBSH| ACTIVE STATE =            3

 ENERGY| Total FORCE_EVAL ( MIXED ) energy (a.u.):             0.000000000000000

 FOBSH| CASE1: no hop and no trivial crossing
 ENTER integrator.F
 STEP NUMBER                  =           22
 CPU TIME [s]                 =    7.4103818275034428E-002   3.0483637146059084     

 *******************************************************************************
 ENSEMBLE TYPE                =                                              NVE
 STEP NUMBER                  =                                               22
 TIME [fs]                    =                                         2.200000
 CONSERVED QUANTITY [hartree] =                               0.000000000000E+00

                                              INSTANTANEOUS             AVERAGES
 CPU TIME [s]                 =                        0.07                 3.05
 ENERGY DRIFT PER ATOM [K]    =          0.000000000000E+00   0.000000000000E+00
 POTENTIAL ENERGY[hartree]    =          0.000000000000E+00   0.000000000000E+00
 KINETIC ENERGY [hartree]     =          0.000000000000E+00   0.000000000000E+00
 TEMPERATURE [K]              =                       0.000                0.000
 *******************************************************************************

 FOBSH| *** OFF-DIAGONAL GRADIENT CALCULATION
 FOBSH| Put former active state           3 in new active state           3
 FOBSH| ACTIVE STATE =            3

 ENERGY| Total FORCE_EVAL ( MIXED ) energy (a.u.):             0.000000000000000

 FOBSH| CASE1: no hop and no trivial crossing
 ENTER integrator.F
 STEP NUMBER                  =           23
 CPU TIME [s]                 =    7.4547043070197105E-002   2.9190673375826166     

 *******************************************************************************
 ENSEMBLE TYPE                =                                              NVE
 STEP NUMBER                  =                                               23
 TIME [fs]                    =                                         2.300000
 CONSERVED QUANTITY [hartree] =                               0.000000000000E+00

                                              INSTANTANEOUS             AVERAGES
 CPU TIME [s]                 =                        0.07                 2.92
 ENERGY DRIFT PER ATOM [K]    =          0.000000000000E+00   0.000000000000E+00
 POTENTIAL ENERGY[hartree]    =          0.000000000000E+00   0.000000000000E+00
 KINETIC ENERGY [hartree]     =          0.000000000000E+00   0.000000000000E+00
 TEMPERATURE [K]              =                       0.000                0.000
 *******************************************************************************

 FOBSH| *** OFF-DIAGONAL GRADIENT CALCULATION
 FOBSH| Put former active state           3 in new active state           3
 FOBSH| ACTIVE STATE =            3

 ENERGY| Total FORCE_EVAL ( MIXED ) energy (a.u.):             0.000000000000000

 FOBSH| CASE1: no hop and no trivial crossing
 ENTER integrator.F
 STEP NUMBER                  =           24
 CPU TIME [s]                 =    7.4995691888034344E-002   2.8005643523453423     

 *******************************************************************************
 ENSEMBLE TYPE                =                                              NVE
 STEP NUMBER                  =                                               24
 TIME [fs]                    =                                         2.400000
 CONSERVED QUANTITY [hartree] =                               0.000000000000E+00

                                              INSTANTANEOUS             AVERAGES
 CPU TIME [s]                 =                        0.07                 2.80
 ENERGY DRIFT PER ATOM [K]    =          0.000000000000E+00   0.000000000000E+00
 POTENTIAL ENERGY[hartree]    =          0.000000000000E+00   0.000000000000E+00
 KINETIC ENERGY [hartree]     =          0.000000000000E+00   0.000000000000E+00
 TEMPERATURE [K]              =                       0.000                0.000
 *******************************************************************************

 FOBSH| *** OFF-DIAGONAL GRADIENT CALCULATION
 FOBSH| Put former active state           3 in new active state           3
 FOBSH| ACTIVE STATE =            3

 ENERGY| Total FORCE_EVAL ( MIXED ) energy (a.u.):             0.000000000000000

 FOBSH| CASE1: no hop and no trivial crossing
 ENTER integrator.F
 STEP NUMBER                  =           25
 CPU TIME [s]                 =    7.4666234664618969E-002   2.6915284276381137     

 *******************************************************************************
 ENSEMBLE TYPE                =                                              NVE
 STEP NUMBER                  =                                               25
 TIME [fs]                    =                                         2.500000
 CONSERVED QUANTITY [hartree] =                               0.000000000000E+00

                                              INSTANTANEOUS             AVERAGES
 CPU TIME [s]                 =                        0.07                 2.69
 ENERGY DRIFT PER ATOM [K]    =          0.000000000000E+00   0.000000000000E+00
 POTENTIAL ENERGY[hartree]    =          0.000000000000E+00   0.000000000000E+00
 KINETIC ENERGY [hartree]     =          0.000000000000E+00   0.000000000000E+00
 TEMPERATURE [K]              =                       0.000                0.000
 *******************************************************************************

 FOBSH| *** OFF-DIAGONAL GRADIENT CALCULATION
 FOBSH| Put former active state           3 in new active state           3
 FOBSH| ACTIVE STATE =            3

 ENERGY| Total FORCE_EVAL ( MIXED ) energy (a.u.):             0.000000000000000

 FOBSH| CASE1: no hop and no trivial crossing
 ENTER integrator.F
 STEP NUMBER                  =           26
 CPU TIME [s]                 =    7.5126987881958485E-002   2.5908976030321078     

 *******************************************************************************
 ENSEMBLE TYPE                =                                              NVE
 STEP NUMBER                  =                                               26
 TIME [fs]                    =                                         2.600000
 CONSERVED QUANTITY [hartree] =                               0.000000000000E+00

                                              INSTANTANEOUS             AVERAGES
 CPU TIME [s]                 =                        0.08                 2.59
 ENERGY DRIFT PER ATOM [K]    =          0.000000000000E+00   0.000000000000E+00
 POTENTIAL ENERGY[hartree]    =          0.000000000000E+00   0.000000000000E+00
 KINETIC ENERGY [hartree]     =          0.000000000000E+00   0.000000000000E+00
 TEMPERATURE [K]              =                       0.000                0.000
 *******************************************************************************

 FOBSH| *** OFF-DIAGONAL GRADIENT CALCULATION
 FOBSH| Put former active state           3 in new active state           3
 FOBSH| ACTIVE STATE =            3

 ENERGY| Total FORCE_EVAL ( MIXED ) energy (a.u.):             0.000000000000000

 FOBSH| CASE1: no hop and no trivial crossing
 ENTER integrator.F
 STEP NUMBER                  =           27
 CPU TIME [s]                 =    7.4451960623264313E-002   2.4976959125725204     

 *******************************************************************************
 ENSEMBLE TYPE                =                                              NVE
 STEP NUMBER                  =                                               27
 TIME [fs]                    =                                         2.700000
 CONSERVED QUANTITY [hartree] =                               0.000000000000E+00

                                              INSTANTANEOUS             AVERAGES
 CPU TIME [s]                 =                        0.07                 2.50
 ENERGY DRIFT PER ATOM [K]    =          0.000000000000E+00   0.000000000000E+00
 POTENTIAL ENERGY[hartree]    =          0.000000000000E+00   0.000000000000E+00
 KINETIC ENERGY [hartree]     =          0.000000000000E+00   0.000000000000E+00
 TEMPERATURE [K]              =                       0.000                0.000
 *******************************************************************************

 FOBSH| *** OFF-DIAGONAL GRADIENT CALCULATION
 FOBSH| Put former active state           3 in new active state           3
 FOBSH| ACTIVE STATE =            3

 ENERGY| Total FORCE_EVAL ( MIXED ) energy (a.u.):             0.000000000000000

 FOBSH| CASE1: no hop and no trivial crossing
 ENTER integrator.F
 STEP NUMBER                  =           28
 CPU TIME [s]                 =    7.4330229312181473E-002   2.4111471381703651     

 *******************************************************************************
 ENSEMBLE TYPE                =                                              NVE
 STEP NUMBER                  =                                               28
 TIME [fs]                    =                                         2.800000
 CONSERVED QUANTITY [hartree] =                               0.000000000000E+00

                                              INSTANTANEOUS             AVERAGES
 CPU TIME [s]                 =                        0.07                 2.41
 ENERGY DRIFT PER ATOM [K]    =          0.000000000000E+00   0.000000000000E+00
 POTENTIAL ENERGY[hartree]    =          0.000000000000E+00   0.000000000000E+00
 KINETIC ENERGY [hartree]     =          0.000000000000E+00   0.000000000000E+00
 TEMPERATURE [K]              =                       0.000                0.000
 *******************************************************************************

 FOBSH| *** OFF-DIAGONAL GRADIENT CALCULATION
 FOBSH| Put former active state           3 in new active state           3
 FOBSH| ACTIVE STATE =            3

 ENERGY| Total FORCE_EVAL ( MIXED ) energy (a.u.):             0.000000000000000

 FOBSH| CASE1: no hop and no trivial crossing
 ENTER integrator.F
 STEP NUMBER                  =           29
 CPU TIME [s]                 =    7.4187851510941982E-002   2.3305623351821092     

 *******************************************************************************
 ENSEMBLE TYPE                =                                              NVE
 STEP NUMBER                  =                                               29
 TIME [fs]                    =                                         2.900000
 CONSERVED QUANTITY [hartree] =                               0.000000000000E+00

                                              INSTANTANEOUS             AVERAGES
 CPU TIME [s]                 =                        0.07                 2.33
 ENERGY DRIFT PER ATOM [K]    =          0.000000000000E+00   0.000000000000E+00
 POTENTIAL ENERGY[hartree]    =          0.000000000000E+00   0.000000000000E+00
 KINETIC ENERGY [hartree]     =          0.000000000000E+00   0.000000000000E+00
 TEMPERATURE [K]              =                       0.000                0.000
 *******************************************************************************

 FOBSH| *** OFF-DIAGONAL GRADIENT CALCULATION
 FOBSH| Put former active state           3 in new active state           3
 FOBSH| ACTIVE STATE =            3

 ENERGY| Total FORCE_EVAL ( MIXED ) energy (a.u.):             0.000000000000000

 FOBSH| CASE1: no hop and no trivial crossing
 ENTER integrator.F
 STEP NUMBER                  =           30
 CPU TIME [s]                 =    7.4396774172782898E-002   2.2553568164817985     

 *******************************************************************************
 ENSEMBLE TYPE                =                                              NVE
 STEP NUMBER                  =                                               30
 TIME [fs]                    =                                         3.000000
 CONSERVED QUANTITY [hartree] =                               0.000000000000E+00

                                              INSTANTANEOUS             AVERAGES
 CPU TIME [s]                 =                        0.07                 2.26
 ENERGY DRIFT PER ATOM [K]    =          0.000000000000E+00   0.000000000000E+00
 POTENTIAL ENERGY[hartree]    =          0.000000000000E+00   0.000000000000E+00
 KINETIC ENERGY [hartree]     =          0.000000000000E+00   0.000000000000E+00
 TEMPERATURE [K]              =                       0.000                0.000
 *******************************************************************************

 FOBSH| *** OFF-DIAGONAL GRADIENT CALCULATION
 FOBSH| Put former active state           3 in new active state           3
 FOBSH| ACTIVE STATE =            3

 ENERGY| Total FORCE_EVAL ( MIXED ) energy (a.u.):             0.000000000000000

 FOBSH| CASE1: no hop and no trivial crossing
 ENTER integrator.F
 STEP NUMBER                  =           31
 CPU TIME [s]                 =    7.4502325616776943E-002   2.1850066716151848     

 *******************************************************************************
 ENSEMBLE TYPE                =                                              NVE
 STEP NUMBER                  =                                               31
 TIME [fs]                    =                                         3.100000
 CONSERVED QUANTITY [hartree] =                               0.000000000000E+00

                                              INSTANTANEOUS             AVERAGES
 CPU TIME [s]                 =                        0.07                 2.19
 ENERGY DRIFT PER ATOM [K]    =          0.000000000000E+00   0.000000000000E+00
 POTENTIAL ENERGY[hartree]    =          0.000000000000E+00   0.000000000000E+00
 KINETIC ENERGY [hartree]     =          0.000000000000E+00   0.000000000000E+00
 TEMPERATURE [K]              =                       0.000                0.000
 *******************************************************************************

 FOBSH| *** OFF-DIAGONAL GRADIENT CALCULATION
 FOBSH| Put former active state           3 in new active state           3
 FOBSH| ACTIVE STATE =            3

 ENERGY| Total FORCE_EVAL ( MIXED ) energy (a.u.):             0.000000000000000

 FOBSH| CASE1: no hop and no trivial crossing
 ENTER integrator.F
 STEP NUMBER                  =           32
 CPU TIME [s]                 =    7.4519170448184013E-002   2.1190539372037160     

 *******************************************************************************
 ENSEMBLE TYPE                =                                              NVE
 STEP NUMBER                  =                                               32
 TIME [fs]                    =                                         3.200000
 CONSERVED QUANTITY [hartree] =                               0.000000000000E+00

                                              INSTANTANEOUS             AVERAGES
 CPU TIME [s]                 =                        0.07                 2.12
 ENERGY DRIFT PER ATOM [K]    =          0.000000000000E+00   0.000000000000E+00
 POTENTIAL ENERGY[hartree]    =          0.000000000000E+00   0.000000000000E+00
 KINETIC ENERGY [hartree]     =          0.000000000000E+00   0.000000000000E+00
 TEMPERATURE [K]              =                       0.000                0.000
 *******************************************************************************

 FOBSH| *** OFF-DIAGONAL GRADIENT CALCULATION
 FOBSH| Put former active state           3 in new active state           3
 FOBSH| ACTIVE STATE =            3

 ENERGY| Total FORCE_EVAL ( MIXED ) energy (a.u.):             0.000000000000000

 FOBSH| CASE1: no hop and no trivial crossing
 ENTER integrator.F
 STEP NUMBER                  =           33
 CPU TIME [s]                 =    7.4560561217367649E-002   2.0570995924768569     

 *******************************************************************************
 ENSEMBLE TYPE                =                                              NVE
 STEP NUMBER                  =                                               33
 TIME [fs]                    =                                         3.300000
 CONSERVED QUANTITY [hartree] =                               0.000000000000E+00

                                              INSTANTANEOUS             AVERAGES
 CPU TIME [s]                 =                        0.07                 2.06
 ENERGY DRIFT PER ATOM [K]    =          0.000000000000E+00   0.000000000000E+00
 POTENTIAL ENERGY[hartree]    =          0.000000000000E+00   0.000000000000E+00
 KINETIC ENERGY [hartree]     =          0.000000000000E+00   0.000000000000E+00
 TEMPERATURE [K]              =                       0.000                0.000
 *******************************************************************************

 FOBSH| *** OFF-DIAGONAL GRADIENT CALCULATION
 FOBSH| Put former active state           3 in new active state           3
 FOBSH| ACTIVE STATE =            3

 ENERGY| Total FORCE_EVAL ( MIXED ) energy (a.u.):             0.000000000000000

 FOBSH| CASE1: no hop and no trivial crossing
 ENTER integrator.F
 STEP NUMBER                  =           34
 CPU TIME [s]                 =    7.3991063050925732E-002   1.9987728710231532     

 *******************************************************************************
 ENSEMBLE TYPE                =                                              NVE
 STEP NUMBER                  =                                               34
 TIME [fs]                    =                                         3.400000
 CONSERVED QUANTITY [hartree] =                               0.000000000000E+00

                                              INSTANTANEOUS             AVERAGES
 CPU TIME [s]                 =                        0.07                 2.00
 ENERGY DRIFT PER ATOM [K]    =          0.000000000000E+00   0.000000000000E+00
 POTENTIAL ENERGY[hartree]    =          0.000000000000E+00   0.000000000000E+00
 KINETIC ENERGY [hartree]     =          0.000000000000E+00   0.000000000000E+00
 TEMPERATURE [K]              =                       0.000                0.000
 *******************************************************************************

 FOBSH| *** OFF-DIAGONAL GRADIENT CALCULATION
 FOBSH| Put former active state           3 in new active state           3
 FOBSH| ACTIVE STATE =            3

 ENERGY| Total FORCE_EVAL ( MIXED ) energy (a.u.):             0.000000000000000

 FOBSH| CASE1: no hop and no trivial crossing
 ENTER integrator.F
 STEP NUMBER                  =           35
 CPU TIME [s]                 =    7.4439735151827335E-002   1.9437919242839723     

 *******************************************************************************
 ENSEMBLE TYPE                =                                              NVE
 STEP NUMBER                  =                                               35
 TIME [fs]                    =                                         3.500000
 CONSERVED QUANTITY [hartree] =                               0.000000000000E+00

                                              INSTANTANEOUS             AVERAGES
 CPU TIME [s]                 =                        0.07                 1.94
 ENERGY DRIFT PER ATOM [K]    =          0.000000000000E+00   0.000000000000E+00
 POTENTIAL ENERGY[hartree]    =          0.000000000000E+00   0.000000000000E+00
 KINETIC ENERGY [hartree]     =          0.000000000000E+00   0.000000000000E+00
 TEMPERATURE [K]              =                       0.000                0.000
 *******************************************************************************

 FOBSH| *** OFF-DIAGONAL GRADIENT CALCULATION
 FOBSH| Put former active state           3 in new active state           3
 FOBSH| ACTIVE STATE =            3

 ENERGY| Total FORCE_EVAL ( MIXED ) energy (a.u.):             0.000000000000000

 FOBSH| CASE1: no hop and no trivial crossing
 ENTER integrator.F
 STEP NUMBER                  =           36
 CPU TIME [s]                 =    7.4286730960011482E-002   1.8918612244694177     

 *******************************************************************************
 ENSEMBLE TYPE                =                                              NVE
 STEP NUMBER                  =                                               36
 TIME [fs]                    =                                         3.600000
 CONSERVED QUANTITY [hartree] =                               0.000000000000E+00

                                              INSTANTANEOUS             AVERAGES
 CPU TIME [s]                 =                        0.07                 1.89
 ENERGY DRIFT PER ATOM [K]    =          0.000000000000E+00   0.000000000000E+00
 POTENTIAL ENERGY[hartree]    =          0.000000000000E+00   0.000000000000E+00
 KINETIC ENERGY [hartree]     =          0.000000000000E+00   0.000000000000E+00
 TEMPERATURE [K]              =                       0.000                0.000
 *******************************************************************************

 FOBSH| *** OFF-DIAGONAL GRADIENT CALCULATION
 FOBSH| Put former active state           3 in new active state           3
 FOBSH| ACTIVE STATE =            3

 ENERGY| Total FORCE_EVAL ( MIXED ) energy (a.u.):             0.000000000000000

 FOBSH| CASE1: no hop and no trivial crossing
 ENTER integrator.F
 STEP NUMBER                  =           37
 CPU TIME [s]                 =    7.4031498283147812E-002   1.8427306913292483     

 *******************************************************************************
 ENSEMBLE TYPE                =                                              NVE
 STEP NUMBER                  =                                               37
 TIME [fs]                    =                                         3.700000
 CONSERVED QUANTITY [hartree] =                               0.000000000000E+00

                                              INSTANTANEOUS             AVERAGES
 CPU TIME [s]                 =                        0.07                 1.84
 ENERGY DRIFT PER ATOM [K]    =          0.000000000000E+00   0.000000000000E+00
 POTENTIAL ENERGY[hartree]    =          0.000000000000E+00   0.000000000000E+00
 KINETIC ENERGY [hartree]     =          0.000000000000E+00   0.000000000000E+00
 TEMPERATURE [K]              =                       0.000                0.000
 *******************************************************************************

 FOBSH| *** OFF-DIAGONAL GRADIENT CALCULATION
 FOBSH| Put former active state           3 in new active state           3
 FOBSH| ACTIVE STATE =            3

 ENERGY| Total FORCE_EVAL ( MIXED ) energy (a.u.):             0.000000000000000

 FOBSH| CASE1: no hop and no trivial crossing
 ENTER integrator.F
 STEP NUMBER                  =           38
 CPU TIME [s]                 =    7.4779511429369450E-002   1.7962056602792511     

 *******************************************************************************
 ENSEMBLE TYPE                =                                              NVE
 STEP NUMBER                  =                                               38
 TIME [fs]                    =                                         3.800000
 CONSERVED QUANTITY [hartree] =                               0.000000000000E+00

                                              INSTANTANEOUS             AVERAGES
 CPU TIME [s]                 =                        0.07                 1.80
 ENERGY DRIFT PER ATOM [K]    =          0.000000000000E+00   0.000000000000E+00
 POTENTIAL ENERGY[hartree]    =          0.000000000000E+00   0.000000000000E+00
 KINETIC ENERGY [hartree]     =          0.000000000000E+00   0.000000000000E+00
 TEMPERATURE [K]              =                       0.000                0.000
 *******************************************************************************

 FOBSH| *** OFF-DIAGONAL GRADIENT CALCULATION
 FOBSH| Put former active state           3 in new active state           3
 FOBSH| ACTIVE STATE =            3

 ENERGY| Total FORCE_EVAL ( MIXED ) energy (a.u.):             0.000000000000000

 FOBSH| CASE1: no hop and no trivial crossing
 ENTER integrator.F
 STEP NUMBER                  =           39
 CPU TIME [s]                 =    7.4328907765448093E-002   1.7520549743173588     

 *******************************************************************************
 ENSEMBLE TYPE                =                                              NVE
 STEP NUMBER                  =                                               39
 TIME [fs]                    =                                         3.900000
 CONSERVED QUANTITY [hartree] =                               0.000000000000E+00

                                              INSTANTANEOUS             AVERAGES
 CPU TIME [s]                 =                        0.07                 1.75
 ENERGY DRIFT PER ATOM [K]    =          0.000000000000E+00   0.000000000000E+00
 POTENTIAL ENERGY[hartree]    =          0.000000000000E+00   0.000000000000E+00
 KINETIC ENERGY [hartree]     =          0.000000000000E+00   0.000000000000E+00
 TEMPERATURE [K]              =                       0.000                0.000
 *******************************************************************************

 FOBSH| *** OFF-DIAGONAL GRADIENT CALCULATION
 FOBSH| Put former active state           3 in new active state           3
 FOBSH| ACTIVE STATE =            3

 ENERGY| Total FORCE_EVAL ( MIXED ) energy (a.u.):             0.000000000000000

 FOBSH| CASE1: no hop and no trivial crossing
 ENTER integrator.F
 STEP NUMBER                  =           40
 CPU TIME [s]                 =    7.4394105933606625E-002   1.7101134526077653     

 *******************************************************************************
 ENSEMBLE TYPE                =                                              NVE
 STEP NUMBER                  =                                               40
 TIME [fs]                    =                                         4.000000
 CONSERVED QUANTITY [hartree] =                               0.000000000000E+00

                                              INSTANTANEOUS             AVERAGES
 CPU TIME [s]                 =                        0.07                 1.71
 ENERGY DRIFT PER ATOM [K]    =          0.000000000000E+00   0.000000000000E+00
 POTENTIAL ENERGY[hartree]    =          0.000000000000E+00   0.000000000000E+00
 KINETIC ENERGY [hartree]     =          0.000000000000E+00   0.000000000000E+00
 TEMPERATURE [K]              =                       0.000                0.000
 *******************************************************************************

 FOBSH| *** OFF-DIAGONAL GRADIENT CALCULATION
 FOBSH| Put former active state           3 in new active state           3
 FOBSH| ACTIVE STATE =            3

 ENERGY| Total FORCE_EVAL ( MIXED ) energy (a.u.):             0.000000000000000

 FOBSH| CASE1: no hop and no trivial crossing
 ENTER integrator.F
 STEP NUMBER                  =           41
 CPU TIME [s]                 =    7.4168796651065350E-002   1.6702123634380894     

 *******************************************************************************
 ENSEMBLE TYPE                =                                              NVE
 STEP NUMBER                  =                                               41
 TIME [fs]                    =                                         4.100000
 CONSERVED QUANTITY [hartree] =                               0.000000000000E+00

                                              INSTANTANEOUS             AVERAGES
 CPU TIME [s]                 =                        0.07                 1.67
 ENERGY DRIFT PER ATOM [K]    =          0.000000000000E+00   0.000000000000E+00
 POTENTIAL ENERGY[hartree]    =          0.000000000000E+00   0.000000000000E+00
 KINETIC ENERGY [hartree]     =          0.000000000000E+00   0.000000000000E+00
 TEMPERATURE [K]              =                       0.000                0.000
 *******************************************************************************

 FOBSH| *** OFF-DIAGONAL GRADIENT CALCULATION
 FOBSH| Put former active state           3 in new active state           3
 FOBSH| ACTIVE STATE =            3

 ENERGY| Total FORCE_EVAL ( MIXED ) energy (a.u.):             0.000000000000000

 FOBSH| CASE1: no hop and no trivial crossing
 ENTER integrator.F
 STEP NUMBER                  =           42
 CPU TIME [s]                 =    7.4192270636558533E-002   1.6322118850380529     

 *******************************************************************************
 ENSEMBLE TYPE                =                                              NVE
 STEP NUMBER                  =                                               42
 TIME [fs]                    =                                         4.200000
 CONSERVED QUANTITY [hartree] =                               0.000000000000E+00

                                              INSTANTANEOUS             AVERAGES
 CPU TIME [s]                 =                        0.07                 1.63
 ENERGY DRIFT PER ATOM [K]    =          0.000000000000E+00   0.000000000000E+00
 POTENTIAL ENERGY[hartree]    =          0.000000000000E+00   0.000000000000E+00
 KINETIC ENERGY [hartree]     =          0.000000000000E+00   0.000000000000E+00
 TEMPERATURE [K]              =                       0.000                0.000
 *******************************************************************************

 FOBSH| *** OFF-DIAGONAL GRADIENT CALCULATION
 FOBSH| Put former active state           3 in new active state           3
 FOBSH| ACTIVE STATE =            3

 ENERGY| Total FORCE_EVAL ( MIXED ) energy (a.u.):             0.000000000000000

 FOBSH| CASE1: no hop and no trivial crossing
 ENTER integrator.F
 STEP NUMBER                  =           43
 CPU TIME [s]                 =    7.4540126137435436E-002   1.5959869604124572     

 *******************************************************************************
 ENSEMBLE TYPE                =                                              NVE
 STEP NUMBER                  =                                               43
 TIME [fs]                    =                                         4.300000
 CONSERVED QUANTITY [hartree] =                               0.000000000000E+00

                                              INSTANTANEOUS             AVERAGES
 CPU TIME [s]                 =                        0.07                 1.60
 ENERGY DRIFT PER ATOM [K]    =          0.000000000000E+00   0.000000000000E+00
 POTENTIAL ENERGY[hartree]    =          0.000000000000E+00   0.000000000000E+00
 KINETIC ENERGY [hartree]     =          0.000000000000E+00   0.000000000000E+00
 TEMPERATURE [K]              =                       0.000                0.000
 *******************************************************************************

 FOBSH| *** OFF-DIAGONAL GRADIENT CALCULATION
 FOBSH| Put former active state           3 in new active state           3
 FOBSH| ACTIVE STATE =            3

 ENERGY| Total FORCE_EVAL ( MIXED ) energy (a.u.):             0.000000000000000

 FOBSH| CASE1: no hop and no trivial crossing
 ENTER integrator.F
 STEP NUMBER                  =           44
 CPU TIME [s]                 =    7.4088413268327713E-002   1.5613983570682726     

 *******************************************************************************
 ENSEMBLE TYPE                =                                              NVE
 STEP NUMBER                  =                                               44
 TIME [fs]                    =                                         4.400000
 CONSERVED QUANTITY [hartree] =                               0.000000000000E+00

                                              INSTANTANEOUS             AVERAGES
 CPU TIME [s]                 =                        0.07                 1.56
 ENERGY DRIFT PER ATOM [K]    =          0.000000000000E+00   0.000000000000E+00
 POTENTIAL ENERGY[hartree]    =          0.000000000000E+00   0.000000000000E+00
 KINETIC ENERGY [hartree]     =          0.000000000000E+00   0.000000000000E+00
 TEMPERATURE [K]              =                       0.000                0.000
 *******************************************************************************

 FOBSH| *** OFF-DIAGONAL GRADIENT CALCULATION
 FOBSH| Put former active state           3 in new active state           3
 FOBSH| ACTIVE STATE =            3

 ENERGY| Total FORCE_EVAL ( MIXED ) energy (a.u.):             0.000000000000000

 FOBSH| CASE1: no hop and no trivial crossing
 ENTER integrator.F
 STEP NUMBER                  =           45
 CPU TIME [s]                 =    7.4758564122021198E-002   1.5283619172250225     

 *******************************************************************************
 ENSEMBLE TYPE                =                                              NVE
 STEP NUMBER                  =                                               45
 TIME [fs]                    =                                         4.500000
 CONSERVED QUANTITY [hartree] =                               0.000000000000E+00

                                              INSTANTANEOUS             AVERAGES
 CPU TIME [s]                 =                        0.07                 1.53
 ENERGY DRIFT PER ATOM [K]    =          0.000000000000E+00   0.000000000000E+00
 POTENTIAL ENERGY[hartree]    =          0.000000000000E+00   0.000000000000E+00
 KINETIC ENERGY [hartree]     =          0.000000000000E+00   0.000000000000E+00
 TEMPERATURE [K]              =                       0.000                0.000
 *******************************************************************************

 FOBSH| *** OFF-DIAGONAL GRADIENT CALCULATION
 FOBSH| Put former active state           3 in new active state           3
 FOBSH| ACTIVE STATE =            3

 ENERGY| Total FORCE_EVAL ( MIXED ) energy (a.u.):             0.000000000000000

 FOBSH| CASE1: no hop and no trivial crossing
 ENTER integrator.F
 STEP NUMBER                  =           46
 CPU TIME [s]                 =    7.4026176705956459E-002   1.4967459228659123     

 *******************************************************************************
 ENSEMBLE TYPE                =                                              NVE
 STEP NUMBER                  =                                               46
 TIME [fs]                    =                                         4.600000
 CONSERVED QUANTITY [hartree] =                               0.000000000000E+00

                                              INSTANTANEOUS             AVERAGES
 CPU TIME [s]                 =                        0.07                 1.50
 ENERGY DRIFT PER ATOM [K]    =          0.000000000000E+00   0.000000000000E+00
 POTENTIAL ENERGY[hartree]    =          0.000000000000E+00   0.000000000000E+00
 KINETIC ENERGY [hartree]     =          0.000000000000E+00   0.000000000000E+00
 TEMPERATURE [K]              =                       0.000                0.000
 *******************************************************************************

 FOBSH| *** OFF-DIAGONAL GRADIENT CALCULATION
 FOBSH| Put former active state           3 in new active state           3
 FOBSH| ACTIVE STATE =            3

 ENERGY| Total FORCE_EVAL ( MIXED ) energy (a.u.):             0.000000000000000

 FOBSH| CASE1: no hop and no trivial crossing
 ENTER integrator.F
 STEP NUMBER                  =           47
 CPU TIME [s]                 =    7.4160935357213020E-002   1.4664781571742378     

 *******************************************************************************
 ENSEMBLE TYPE                =                                              NVE
 STEP NUMBER                  =                                               47
 TIME [fs]                    =                                         4.700000
 CONSERVED QUANTITY [hartree] =                               0.000000000000E+00

                                              INSTANTANEOUS             AVERAGES
 CPU TIME [s]                 =                        0.07                 1.47
 ENERGY DRIFT PER ATOM [K]    =          0.000000000000E+00   0.000000000000E+00
 POTENTIAL ENERGY[hartree]    =          0.000000000000E+00   0.000000000000E+00
 KINETIC ENERGY [hartree]     =          0.000000000000E+00   0.000000000000E+00
 TEMPERATURE [K]              =                       0.000                0.000
 *******************************************************************************

 FOBSH| *** OFF-DIAGONAL GRADIENT CALCULATION
 FOBSH| Put former active state           3 in new active state           3
 FOBSH| ACTIVE STATE =            3

 ENERGY| Total FORCE_EVAL ( MIXED ) energy (a.u.):             0.000000000000000

 FOBSH| CASE1: no hop and no trivial crossing
 ENTER integrator.F
 STEP NUMBER                  =           48
 CPU TIME [s]                 =    7.4250527657568455E-002   1.4374734148926405     

 *******************************************************************************
 ENSEMBLE TYPE                =                                              NVE
 STEP NUMBER                  =                                               48
 TIME [fs]                    =                                         4.800000
 CONSERVED QUANTITY [hartree] =                               0.000000000000E+00

                                              INSTANTANEOUS             AVERAGES
 CPU TIME [s]                 =                        0.07                 1.44
 ENERGY DRIFT PER ATOM [K]    =          0.000000000000E+00   0.000000000000E+00
 POTENTIAL ENERGY[hartree]    =          0.000000000000E+00   0.000000000000E+00
 KINETIC ENERGY [hartree]     =          0.000000000000E+00   0.000000000000E+00
 TEMPERATURE [K]              =                       0.000                0.000
 *******************************************************************************

 FOBSH| *** OFF-DIAGONAL GRADIENT CALCULATION
 FOBSH| Put former active state           3 in new active state           3
 FOBSH| ACTIVE STATE =            3

 ENERGY| Total FORCE_EVAL ( MIXED ) energy (a.u.):             0.000000000000000

 FOBSH| CASE1: no hop and no trivial crossing
 ENTER integrator.F
 STEP NUMBER                  =           49
 CPU TIME [s]                 =    7.4158127419650555E-002   1.4096506539238041     

 *******************************************************************************
 ENSEMBLE TYPE                =                                              NVE
 STEP NUMBER                  =                                               49
 TIME [fs]                    =                                         4.900000
 CONSERVED QUANTITY [hartree] =                               0.000000000000E+00

                                              INSTANTANEOUS             AVERAGES
 CPU TIME [s]                 =                        0.07                 1.41
 ENERGY DRIFT PER ATOM [K]    =          0.000000000000E+00   0.000000000000E+00
 POTENTIAL ENERGY[hartree]    =          0.000000000000E+00   0.000000000000E+00
 KINETIC ENERGY [hartree]     =          0.000000000000E+00   0.000000000000E+00
 TEMPERATURE [K]              =                       0.000                0.000
 *******************************************************************************

 FOBSH| *** OFF-DIAGONAL GRADIENT CALCULATION
 FOBSH| Put former active state           3 in new active state           3
 FOBSH| ACTIVE STATE =            3

 ENERGY| Total FORCE_EVAL ( MIXED ) energy (a.u.):             0.000000000000000

 FOBSH| CASE1: no hop and no trivial crossing
 ENTER integrator.F
 STEP NUMBER                  =           50
 CPU TIME [s]                 =    7.4287042953073978E-002   1.3829433817043895     

 *******************************************************************************
 ENSEMBLE TYPE                =                                              NVE
 STEP NUMBER                  =                                               50
 TIME [fs]                    =                                         5.000000
 CONSERVED QUANTITY [hartree] =                               0.000000000000E+00

                                              INSTANTANEOUS             AVERAGES
 CPU TIME [s]                 =                        0.07                 1.38
 ENERGY DRIFT PER ATOM [K]    =          0.000000000000E+00   0.000000000000E+00
 POTENTIAL ENERGY[hartree]    =          0.000000000000E+00   0.000000000000E+00
 KINETIC ENERGY [hartree]     =          0.000000000000E+00   0.000000000000E+00
 TEMPERATURE [K]              =                       0.000                0.000
 *******************************************************************************

 FOBSH| *** OFF-DIAGONAL GRADIENT CALCULATION
 FOBSH| Put former active state           3 in new active state           3
 FOBSH| ACTIVE STATE =            3

 ENERGY| Total FORCE_EVAL ( MIXED ) energy (a.u.):             0.000000000000000

 FOBSH| CASE1: no hop and no trivial crossing
 ENTER integrator.F
 STEP NUMBER                  =           51
 CPU TIME [s]                 =    7.4115242809057236E-002   1.3572800848633044     

 *******************************************************************************
[...]

 FOBSH| CASE1: no hop and no trivial crossing
 ENTER integrator.F
 STEP NUMBER                  =          190
 CPU TIME [s]                 =    4.0217993780970573E-002  0.41656539713179586     

 *******************************************************************************
 ENSEMBLE TYPE                =                                              NVE
 STEP NUMBER                  =                                              190
 TIME [fs]                    =                                        19.000000
 CONSERVED QUANTITY [hartree] =                               0.000000000000E+00

                                              INSTANTANEOUS             AVERAGES
 CPU TIME [s]                 =                        0.04                 0.42
 ENERGY DRIFT PER ATOM [K]    =          0.000000000000E+00   0.000000000000E+00
 POTENTIAL ENERGY[hartree]    =          0.000000000000E+00   0.000000000000E+00
 KINETIC ENERGY [hartree]     =          0.000000000000E+00   0.000000000000E+00
 TEMPERATURE [K]              =                       0.000                0.000
 *******************************************************************************

 FOBSH| *** OFF-DIAGONAL GRADIENT CALCULATION
 FOBSH| Put former active state           3 in new active state           3
 FOBSH| ACTIVE STATE =            3

 ENERGY| Total FORCE_EVAL ( MIXED ) energy (a.u.):             0.000000000000000

 FOBSH| CASE1: no hop and no trivial crossing
 ENTER integrator.F
 STEP NUMBER                  =          191
 CPU TIME [s]                 =    6.1133977957069874E-002  0.41470449964920569     

 *******************************************************************************
 ENSEMBLE TYPE                =                                              NVE
 STEP NUMBER                  =                                              191
 TIME [fs]                    =                                        19.100000
 CONSERVED QUANTITY [hartree] =                               0.000000000000E+00

                                              INSTANTANEOUS             AVERAGES
 CPU TIME [s]                 =                        0.06                 0.41
 ENERGY DRIFT PER ATOM [K]    =          0.000000000000E+00   0.000000000000E+00
 POTENTIAL ENERGY[hartree]    =          0.000000000000E+00   0.000000000000E+00
 KINETIC ENERGY [hartree]     =          0.000000000000E+00   0.000000000000E+00
 TEMPERATURE [K]              =                       0.000                0.000
 *******************************************************************************

 FOBSH| *** OFF-DIAGONAL GRADIENT CALCULATION
 FOBSH| Put former active state           3 in new active state           3
 FOBSH| ACTIVE STATE =            3

 ENERGY| Total FORCE_EVAL ( MIXED ) energy (a.u.):             0.000000000000000

 FOBSH| CASE1: no hop and no trivial crossing
 ENTER integrator.F
 STEP NUMBER                  =          192
 CPU TIME [s]                 =    4.6652197837829590E-002  0.41278756057727140     

 *******************************************************************************
 ENSEMBLE TYPE                =                                              NVE
 STEP NUMBER                  =                                              192
 TIME [fs]                    =                                        19.200000
 CONSERVED QUANTITY [hartree] =                               0.000000000000E+00

                                              INSTANTANEOUS             AVERAGES
 CPU TIME [s]                 =                        0.05                 0.41
 ENERGY DRIFT PER ATOM [K]    =          0.000000000000E+00   0.000000000000E+00
 POTENTIAL ENERGY[hartree]    =          0.000000000000E+00   0.000000000000E+00
 KINETIC ENERGY [hartree]     =          0.000000000000E+00   0.000000000000E+00
 TEMPERATURE [K]              =                       0.000                0.000
 *******************************************************************************

 FOBSH| *** OFF-DIAGONAL GRADIENT CALCULATION
 FOBSH| Put former active state           3 in new active state           3
 FOBSH| ACTIVE STATE =            3

 ENERGY| Total FORCE_EVAL ( MIXED ) energy (a.u.):             0.000000000000000

 FOBSH| CASE1: no hop and no trivial crossing
 ENTER integrator.F
 STEP NUMBER                  =          193
 CPU TIME [s]                 =    3.9800683967769146E-002  0.41085498608706672     

 *******************************************************************************
 ENSEMBLE TYPE                =                                              NVE
 STEP NUMBER                  =                                              193
 TIME [fs]                    =                                        19.300000
 CONSERVED QUANTITY [hartree] =                               0.000000000000E+00

                                              INSTANTANEOUS             AVERAGES
 CPU TIME [s]                 =                        0.04                 0.41
 ENERGY DRIFT PER ATOM [K]    =          0.000000000000E+00   0.000000000000E+00
 POTENTIAL ENERGY[hartree]    =          0.000000000000E+00   0.000000000000E+00
 KINETIC ENERGY [hartree]     =          0.000000000000E+00   0.000000000000E+00
 TEMPERATURE [K]              =                       0.000                0.000
 *******************************************************************************

 FOBSH| *** OFF-DIAGONAL GRADIENT CALCULATION
 FOBSH| Put former active state           3 in new active state           3
 FOBSH| ACTIVE STATE =            3

 ENERGY| Total FORCE_EVAL ( MIXED ) energy (a.u.):             0.000000000000000

 FOBSH| CASE1: no hop and no trivial crossing
 ENTER integrator.F
 STEP NUMBER                  =          194
 CPU TIME [s]                 =    4.0000574663281441E-002  0.40894336540962450     

 *******************************************************************************
 ENSEMBLE TYPE                =                                              NVE
 STEP NUMBER                  =                                              194
 TIME [fs]                    =                                        19.400000
 CONSERVED QUANTITY [hartree] =                               0.000000000000E+00

                                              INSTANTANEOUS             AVERAGES
 CPU TIME [s]                 =                        0.04                 0.41
 ENERGY DRIFT PER ATOM [K]    =          0.000000000000E+00   0.000000000000E+00
 POTENTIAL ENERGY[hartree]    =          0.000000000000E+00   0.000000000000E+00
 KINETIC ENERGY [hartree]     =          0.000000000000E+00   0.000000000000E+00
 TEMPERATURE [K]              =                       0.000                0.000
 *******************************************************************************

 FOBSH| *** OFF-DIAGONAL GRADIENT CALCULATION
 FOBSH| Put former active state           3 in new active state           3
 FOBSH| ACTIVE STATE =            3

 ENERGY| Total FORCE_EVAL ( MIXED ) energy (a.u.):             0.000000000000000

 FOBSH| CASE1: no hop and no trivial crossing
 ENTER integrator.F
 STEP NUMBER                  =          195
 CPU TIME [s]                 =    4.0090312249958515E-002  0.40705181129085699     

 *******************************************************************************
 ENSEMBLE TYPE                =                                              NVE
 STEP NUMBER                  =                                              195
 TIME [fs]                    =                                        19.500000
 CONSERVED QUANTITY [hartree] =                               0.000000000000E+00

                                              INSTANTANEOUS             AVERAGES
 CPU TIME [s]                 =                        0.04                 0.41
 ENERGY DRIFT PER ATOM [K]    =          0.000000000000E+00   0.000000000000E+00
 POTENTIAL ENERGY[hartree]    =          0.000000000000E+00   0.000000000000E+00
 KINETIC ENERGY [hartree]     =          0.000000000000E+00   0.000000000000E+00
 TEMPERATURE [K]              =                       0.000                0.000
 *******************************************************************************

 FOBSH| *** OFF-DIAGONAL GRADIENT CALCULATION
 FOBSH| Put former active state           3 in new active state           3
 FOBSH| ACTIVE STATE =            3

 ENERGY| Total FORCE_EVAL ( MIXED ) energy (a.u.):             0.000000000000000

 FOBSH| CASE1: no hop and no trivial crossing
 ENTER integrator.F
 STEP NUMBER                  =          196
 CPU TIME [s]                 =    3.9987750351428986E-002  0.40517903546973744     

 *******************************************************************************
 ENSEMBLE TYPE                =                                              NVE
 STEP NUMBER                  =                                              196
 TIME [fs]                    =                                        19.600000
 CONSERVED QUANTITY [hartree] =                               0.000000000000E+00

                                              INSTANTANEOUS             AVERAGES
 CPU TIME [s]                 =                        0.04                 0.41
 ENERGY DRIFT PER ATOM [K]    =          0.000000000000E+00   0.000000000000E+00
 POTENTIAL ENERGY[hartree]    =          0.000000000000E+00   0.000000000000E+00
 KINETIC ENERGY [hartree]     =          0.000000000000E+00   0.000000000000E+00
 TEMPERATURE [K]              =                       0.000                0.000
 *******************************************************************************

 FOBSH| *** OFF-DIAGONAL GRADIENT CALCULATION
 FOBSH| Put former active state           3 in new active state           3
 FOBSH| ACTIVE STATE =            3

 ENERGY| Total FORCE_EVAL ( MIXED ) energy (a.u.):             0.000000000000000

 FOBSH| CASE1: no hop and no trivial crossing
 ENTER integrator.F
 STEP NUMBER                  =          197
 CPU TIME [s]                 =    4.0211914107203484E-002  0.40332641048820173     

 *******************************************************************************
 ENSEMBLE TYPE                =                                              NVE
 STEP NUMBER                  =                                              197
 TIME [fs]                    =                                        19.700000
 CONSERVED QUANTITY [hartree] =                               0.000000000000E+00

                                              INSTANTANEOUS             AVERAGES
 CPU TIME [s]                 =                        0.04                 0.40
 ENERGY DRIFT PER ATOM [K]    =          0.000000000000E+00   0.000000000000E+00
 POTENTIAL ENERGY[hartree]    =          0.000000000000E+00   0.000000000000E+00
 KINETIC ENERGY [hartree]     =          0.000000000000E+00   0.000000000000E+00
 TEMPERATURE [K]              =                       0.000                0.000
 *******************************************************************************

 FOBSH| *** OFF-DIAGONAL GRADIENT CALCULATION
 FOBSH| Put former active state           3 in new active state           3
 FOBSH| ACTIVE STATE =            3

 ENERGY| Total FORCE_EVAL ( MIXED ) energy (a.u.):             0.000000000000000

 FOBSH| CASE1: no hop and no trivial crossing
 ENTER integrator.F
 STEP NUMBER                  =          198
 CPU TIME [s]                 =    3.9825591258704662E-002  0.40149054776482046     

 *******************************************************************************
 ENSEMBLE TYPE                =                                              NVE
 STEP NUMBER                  =                                              198
 TIME [fs]                    =                                        19.800000
 CONSERVED QUANTITY [hartree] =                               0.000000000000E+00

                                              INSTANTANEOUS             AVERAGES
 CPU TIME [s]                 =                        0.04                 0.40
 ENERGY DRIFT PER ATOM [K]    =          0.000000000000E+00   0.000000000000E+00
 POTENTIAL ENERGY[hartree]    =          0.000000000000E+00   0.000000000000E+00
 KINETIC ENERGY [hartree]     =          0.000000000000E+00   0.000000000000E+00
 TEMPERATURE [K]              =                       0.000                0.000
 *******************************************************************************

 FOBSH| *** OFF-DIAGONAL GRADIENT CALCULATION
 FOBSH| Put former active state           3 in new active state           3
 FOBSH| ACTIVE STATE =            3

 ENERGY| Total FORCE_EVAL ( MIXED ) energy (a.u.):             0.000000000000000

 FOBSH| CASE1: no hop and no trivial crossing
 ENTER integrator.F
 STEP NUMBER                  =          199
 CPU TIME [s]                 =    3.9841143414378166E-002  0.39967321407461720     

 *******************************************************************************
 ENSEMBLE TYPE                =                                              NVE
 STEP NUMBER                  =                                              199
 TIME [fs]                    =                                        19.900000
 CONSERVED QUANTITY [hartree] =                               0.000000000000E+00

                                              INSTANTANEOUS             AVERAGES
 CPU TIME [s]                 =                        0.04                 0.40
 ENERGY DRIFT PER ATOM [K]    =          0.000000000000E+00   0.000000000000E+00
 POTENTIAL ENERGY[hartree]    =          0.000000000000E+00   0.000000000000E+00
 KINETIC ENERGY [hartree]     =          0.000000000000E+00   0.000000000000E+00
 TEMPERATURE [K]              =                       0.000                0.000
 *******************************************************************************

 FOBSH| *** OFF-DIAGONAL GRADIENT CALCULATION
 FOBSH| Put former active state           3 in new active state           3
 FOBSH| ACTIVE STATE =            3

 ENERGY| Total FORCE_EVAL ( MIXED ) energy (a.u.):             0.000000000000000

 FOBSH| CASE1: no hop and no trivial crossing
 ENTER integrator.F
 STEP NUMBER                  =          200
 CPU TIME [s]                 =    4.0017138235270977E-002  0.39787493369542049     

 *******************************************************************************
 ENSEMBLE TYPE                =                                              NVE
 STEP NUMBER                  =                                              200
 TIME [fs]                    =                                        20.000000
 CONSERVED QUANTITY [hartree] =                               0.000000000000E+00

                                              INSTANTANEOUS             AVERAGES
 CPU TIME [s]                 =                        0.04                 0.40
 ENERGY DRIFT PER ATOM [K]    =          0.000000000000E+00   0.000000000000E+00
 POTENTIAL ENERGY[hartree]    =          0.000000000000E+00   0.000000000000E+00
 KINETIC ENERGY [hartree]     =          0.000000000000E+00   0.000000000000E+00
 TEMPERATURE [K]              =                       0.000                0.000
 *******************************************************************************


 -------------------------------------------------------------------------------
 -                                                                             -
 -                                DBCSR STATISTICS                             -
 -                                                                             -
 -------------------------------------------------------------------------------
 COUNTER                                    TOTAL       BLAS       SMM       ACC
 flops total                                    0       0.0%      0.0%      0.0%
 flops max/rank                                 0       0.0%      0.0%      0.0%
 matmuls inhomo. stacks                         0       0.0%      0.0%      0.0%
 matmuls total                                  0       0.0%      0.0%      0.0%
 number of processed stacks                     0       0.0%      0.0%      0.0%
 average stack size                                     0.0       0.0       0.0
 marketing flops                     0.000000E+00
 -------------------------------------------------------------------------------

 MEMORY| Estimated peak process memory [MiB]                                 122

 -------------------------------------------------------------------------------
 -                                                                             -
 -                           R E F E R E N C E S                               -
 -                                                                             -
 -------------------------------------------------------------------------------
 
 CP2K version 4.0 (Development Version), the CP2K developers group (2015).
 CP2K is freely available from https://www.cp2k.org/ .

 Borstnik, U; VandeVondele, J; Weber, V; Hutter, J. 
 PARALLEL COMPUTING, 40 (5-6), 47-58 (2014). 
 Sparse matrix multiplication: The distributed block-compressed sparse
 row library.
 http://dx.doi.org/10.1016/j.parco.2014.03.012


 Hutter, J; Iannuzzi, M; Schiffmann, F; VandeVondele, J. 
 WILEY INTERDISCIPLINARY REVIEWS-COMPUTATIONAL MOLECULAR SCIENCE, 4 (1), 15-25 (2014). 
 CP2K: atomistic simulations of condensed matter systems.
 http://dx.doi.org/10.1002/wcms.1159


 Frigo, M; Johnson, SG. 
 PROCEEDINGS OF THE IEEE, 93 (2), 216-231 (2005). 
 The design and implementation of FFTW3.
 http://dx.doi.org/10.1109/JPROC.2004.840301


 -------------------------------------------------------------------------------
 -                                                                             -
 -                                T I M I N G                                  -
 -                                                                             -
 -------------------------------------------------------------------------------
 SUBROUTINE                       CALLS  ASD         SELF TIME        TOTAL TIME
                                MAXIMUM       AVERAGE  MAXIMUM  AVERAGE  MAXIMUM
 CP2K                                 1  1.0    0.036    0.036   87.601   87.601
 qs_mol_dyn_low                       1  2.0   14.166   14.166   79.608   79.608
 parser_read_line               2346106  3.0   18.825   18.825   55.440   55.440
 parser_read_line_low              2509  4.3   36.595   36.595   36.615   36.615
 velocity_verlet                    200  3.0   10.121   10.121   13.863   13.863
 topology_control                     3  4.0    0.009    0.009    7.404    7.404
 connectivity_control                 3  5.0    0.032    0.032    7.075    7.075
 read_topology_psf                  150  6.0    3.122    3.122    7.033    7.033
 fist_create_force_env                2  2.0    0.000    0.000    6.213    6.213
 fist_init                            2  3.0    0.002    0.002    6.213    6.213
 fist_calc_energy_force             402  4.0    0.019    0.019    3.921    3.921
 force_nonbond                      201  5.0    3.163    3.163    3.163    3.163
 -------------------------------------------------------------------------------

 The number of warnings for this run is : 1
 
 -------------------------------------------------------------------------------
  **** **** ******  **  PROGRAM ENDED AT                 2021-02-12 16:45:04.318
 ***** ** ***  *** **   PROGRAM RAN ON                   bulstake.phys.ucl.ac.uk
 **    ****   ******    PROGRAM RAN BY                                 sgiannini
 ***** **    ** ** **   PROGRAM PROCESS ID                                  3527
  **** **  *******  **  PROGRAM STOPPED IN /scratch/sgiannini/FOB-SH-REGTESTS_/3
                                           3-XXX_code_extension_V2/run-fssh-MTS1
                                           _FROZEN_H
