 # Version information for this restart file 
 # current date 2021-04-29 14:23:55.127
 # current working dir /scratch/sgiannini/REG_TEST_MERGING/37-071a0540f1_code_extension_V3_ADJ/run-fssh-3NAP-3ANT-3FF-FE-CT-CR-C-inter
 # Program compiled at                              Thu 29 Apr 10:11:08 BST 2021
 # Program compiled on                                   bulstake.phys.ucl.ac.uk
 # Program compiled for                                             local_hetero
 # Source code revision number                                       git:1080fc1
 &GLOBAL
   BLACS_GRID  SQUARE
   PREFERRED_FFT_LIBRARY  FFTW3
   PRINT_LEVEL  LOW
   PROGRAM_NAME  CP2K
   PROJECT_NAME run
   RUN_TYPE  MD
 &END GLOBAL
 &MOTION
   &MD
     ENSEMBLE  NVE
     STEPS  200
     TIMESTEP     9.9999999999999992E-02
     STEP_START_VAL  200
     TIME_START_VAL     2.0000000000000071E+01
     ECONS_START_VAL     7.2115103948968773E-01
     TEMPERATURE     3.0000000000000000E+02
     &THERMOSTAT
       REGION  GLOBAL
       &NOSE
         LENGTH  3
         YOSHIDA  3
         TIMECON     9.9999999999999989E+02
         MTS  2
       &END NOSE
     &END THERMOSTAT
     &AVERAGES  T
       &RESTART_AVERAGES
         ITIMES_START  1
         AVECPU     1.8518567513674498E-02
         AVEHUGONIOT     0.0000000000000000E+00
         AVETEMP_BARO     0.0000000000000000E+00
         AVEPOT     3.3401773200881907E-01
         AVEKIN     3.8712144884552069E-01
         AVETEMP     3.2994099650437749E+02
         AVEKIN_QM     0.0000000000000000E+00
         AVETEMP_QM     0.0000000000000000E+00
         AVEVOL     1.4576402699474397E+06
         AVECELL_A     1.1338356797313864E+02
         AVECELL_B     1.1338356797313864E+02
         AVECELL_C     1.1338356797313864E+02
         AVEALPHA     9.0000000000000043E+01
         AVEBETA     9.0000000000000043E+01
         AVEGAMMA     9.0000000000000043E+01
         AVE_ECONS    -1.5100507926066488E-02
         AVE_PRESS     0.0000000000000000E+00
         AVE_PXX     0.0000000000000000E+00
       &END RESTART_AVERAGES
     &END AVERAGES
     &PRINT
       &PROGRAM_RUN_INFO  LOW
       &END PROGRAM_RUN_INFO
     &END PRINT
   &END MD
   &CONSTRAINT
     &COLLECTIVE
       COLVAR  1
       INTERMOLECULAR  T
       TARGET     0.0000000000000000E+00
       &RESTRAINT
         K     5.0000000000000001E-03
       &END RESTRAINT
     &END COLLECTIVE
     &COLLECTIVE
       COLVAR  2
       INTERMOLECULAR  T
       TARGET     0.0000000000000000E+00
       &RESTRAINT
         K     5.0000000000000001E-03
       &END RESTRAINT
     &END COLLECTIVE
     &COLLECTIVE
       COLVAR  3
       INTERMOLECULAR  T
       TARGET     0.0000000000000000E+00
       &RESTRAINT
         K     5.0000000000000001E-03
       &END RESTRAINT
     &END COLLECTIVE
     &COLLECTIVE
       COLVAR  4
       INTERMOLECULAR  T
       TARGET     0.0000000000000000E+00
       &RESTRAINT
         K     5.0000000000000001E-03
       &END RESTRAINT
     &END COLLECTIVE
     &COLLECTIVE
       COLVAR  5
       INTERMOLECULAR  T
       TARGET     0.0000000000000000E+00
       &RESTRAINT
         K     5.0000000000000001E-03
       &END RESTRAINT
     &END COLLECTIVE
     &COLLECTIVE
       COLVAR  6
       INTERMOLECULAR  T
       TARGET     0.0000000000000000E+00
       &RESTRAINT
         K     5.0000000000000001E-03
       &END RESTRAINT
     &END COLLECTIVE
     &COLLECTIVE
       COLVAR  7
       INTERMOLECULAR  T
       TARGET     0.0000000000000000E+00
       &RESTRAINT
         K     5.0000000000000001E-03
       &END RESTRAINT
     &END COLLECTIVE
     &COLLECTIVE
       COLVAR  8
       INTERMOLECULAR  T
       TARGET     0.0000000000000000E+00
       &RESTRAINT
         K     5.0000000000000001E-03
       &END RESTRAINT
     &END COLLECTIVE
     &COLLECTIVE
       COLVAR  9
       INTERMOLECULAR  T
       TARGET     0.0000000000000000E+00
       &RESTRAINT
         K     5.0000000000000001E-03
       &END RESTRAINT
     &END COLLECTIVE
     &COLLECTIVE
       COLVAR  10
       INTERMOLECULAR  T
       TARGET     0.0000000000000000E+00
       &RESTRAINT
         K     5.0000000000000001E-03
       &END RESTRAINT
     &END COLLECTIVE
     &COLLECTIVE
       COLVAR  11
       INTERMOLECULAR  T
       TARGET     0.0000000000000000E+00
       &RESTRAINT
         K     5.0000000000000001E-03
       &END RESTRAINT
     &END COLLECTIVE
     &COLLECTIVE
       COLVAR  12
       INTERMOLECULAR  T
       TARGET     0.0000000000000000E+00
       &RESTRAINT
         K     5.0000000000000001E-03
       &END RESTRAINT
     &END COLLECTIVE
     &COLVAR_RESTART
           0.0000000000000000E+00
           0.0000000000000000E+00
           0.0000000000000000E+00
           0.0000000000000000E+00
           0.0000000000000000E+00
           0.0000000000000000E+00
           0.0000000000000000E+00
           0.0000000000000000E+00
           0.0000000000000000E+00
           0.0000000000000000E+00
           0.0000000000000000E+00
           0.0000000000000000E+00
     &END COLVAR_RESTART
   &END CONSTRAINT
   &PRINT
     &TRAJECTORY  LOW
       FORMAT  XMOL
       &EACH
         MD  200
       &END EACH
     &END TRAJECTORY
     &MIXED_ENERGIES  OFF
     &END MIXED_ENERGIES
     &RESTART  ON
       &EACH
         MD  200
       &END EACH
     &END RESTART
     &RESTART_HISTORY  OFF
     &END RESTART_HISTORY
   &END PRINT
 &END MOTION
 &MULTIPLE_FORCE_EVALS
   FORCE_EVAL_ORDER  1..4
   MULTIPLE_SUBSYS  T
 &END MULTIPLE_FORCE_EVALS
 &FORCE_EVAL
   METHOD  MIXED
   &MIXED
     MIXING_TYPE  ADIABATIC
     &ADIABATIC
       METHOD_PROPAGATION FSSH
       PRINT_MORE  T
       INITIALIZATION DIABATIC
       REPRESENTATION DIABATIC_BASIS
       ELECTRONIC_PARTIAL_STEP  5
       FIRST_DIABAT  1
       FIRST_ADIABAT  1
       SEED  641704875
       NUMBER_DIABATIC_STATES  13
       NUMBER_ORBITALS  1
       NUCLEAR_TIMESTEP     9.9999999999999992E-02
       CENTER_OF_MASS  T
       METHOD_COUPLING FROZEN_COUPLINGS
       &OPTIMIZATION
         DO_SPEEDUP_LJ  F
         DO_SPEEDUP_INTRA  F
         SURF_HOP_CHOICE TRIVIAL_HOP_CORRECT
         RK_PROPAGATION DIABATIC_RK_FAST
         REORDERING_STATES_USING_OVERLAP  T
       &END OPTIMIZATION
       &DECOHERENCE
         DECOHERENCE_CORRECTIONS DAMPING
         DECO_TIME EDC
         SPURIOUS_TRANSFER_CORR  T
         EDC_C     1.0000000000000000E+00
         EDC_E0     0.0000000000000000E+00
         THRESHOLD_TAU_FORCES     9.9999999999999995E-21
         TEMPERATURE_FG_WIDTH     3.0000000000000000E+02
         DECOHERENCE_CRITERION     9.9999999999999995E-07
       &END DECOHERENCE
       &ENERGY_CONSERVATION
         METHOD_RESCALING NACV
         METHOD_ADIABATIC_NACV FAST
         METHOD_REVERSAL ALWAYS
       &END ENERGY_CONSERVATION
       &METHOD_SITE_ENERGIES
         MULTI_STATES  T
         BLOCK_TYPE CT-FE-CR
         &CT_BLOCK
C 6  1      -0.58339550E-01
C 6  1      -0.99845988E-01
C 6  1       0.12140408E+00
C 6  1      -0.10046501E+00
C 6  1      -0.59335682E-01
H 1  1       0.17155799E+00
H 1  1       0.17628283E+00
H 1  1       0.17678236E+00
H 1  1       0.17190822E+00
C 6  1       0.12140644E+00
C 6  1      -0.59358378E-01
C 6  1      -0.10029122E+00
C 6  1      -0.10012781E+00
C 6  1      -0.58011713E-01
H 1  1       0.17189684E+00
H 1  1       0.17672572E+00
H 1  1       0.17633935E+00
H 1  1       0.17147152E+00
C  6   1    -0.20949694E+00
C  6   1    -0.31212345E+00
C  6   1     0.25978083E+00
C  6   1    -0.61212683E+00
C  6   1     0.25537360E+00
C  6   1    -0.30923112E+00
C  6   1    -0.21247959E+00
H  1   1     0.11121255E+00
H  1   1     0.12280490E+00
H  1   1     0.17085595E+00
H  1   1     0.12225175E+00
H  1   1     0.11179799E+00
C  6   1     0.25909058E+00
C  6   1    -0.60734358E+00
C  6   1     0.25364958E+00
C  6   1    -0.31146740E+00
H  1   1     0.16986379E+00
C  6   1    -0.30795782E+00
C  6   1    -0.20951246E+00
H  1   1     0.12283089E+00
C  6   1    -0.21340590E+00
H  1   1     0.12221881E+00
H  1   1     0.11133373E+00
H  1   1     0.11208013E+00
           ADD_COULOMB_POTENTIAL  T
           DIELECTRIC_SCREENING     3.0000000000000000E+00
           N_DONOR_ATOMS  18
           N_ACCEPTOR_ATOMS  24
           INDEX_DONOR_MOLS  1..3
           INDEX_ACCEPTOR_MOLS  4..6
         &END CT_BLOCK
         &FE_BLOCK
           INDEX_EXC_MOLS  4..6
         &END FE_BLOCK
       &END METHOD_SITE_ENERGIES
       &FROZEN_COUPLINGS
1   1   0.0
1   2   0.001469972
1   4   0.002
2   2   0.0
2   3   0.001469972
2   5   0.002
3   3   0.0
3   6   0.002
4   4   0.0
4   5   0.001469972
4   7   0.002
5   5   0.0
5   6   0.001469972
5   8   0.002
6   6   0.0
6   9   0.002
7   7   0.0
7   8   0.001469972
8   8   0.0
8   9   0.001469972
9   9   0.0
10   10   0.0
10   11   0.00055124
11   11   0.0
11   12   0.00055124
12   12   0.0
13   13   0.0
         CONNECTIVITY_FRZ_C  T
         INTERACTION_NUMBER  27
       &END FROZEN_COUPLINGS
       &PRINT
         &COEFFICIENTS  LOW
           &EACH
             MD  1
           &END EACH
         &END COEFFICIENTS
         &POPULATIONS  LOW
           &EACH
             MD  1
           &END EACH
         &END POPULATIONS
         &ADIAB_POPULATIONS  LOW
           &EACH
             MD  1
           &END EACH
         &END ADIAB_POPULATIONS
         &ADIABAT_ENERGIES  SILENT
           &EACH
             MD  1
           &END EACH
         &END ADIABAT_ENERGIES
         &SITE_ENERGIES  SILENT
           &EACH
             MD  1
           &END EACH
         &END SITE_ENERGIES
         &OFF_DIAGONALS  SILENT
           &EACH
             MD  1
           &END EACH
         &END OFF_DIAGONALS
         &PSEUDO_HAMILTONIAN  SILENT
           UNIT hartree
           &EACH
             MD  1
           &END EACH
         &END PSEUDO_HAMILTONIAN
         &SH_INFO  SILENT
           &EACH
             MD  1
           &END EACH
         &END SH_INFO
       &END PRINT
     &END ADIABATIC
     &PRINT
       &PROGRAM_RUN_INFO  OFF
         &EACH
           MD  200
         &END EACH
       &END PROGRAM_RUN_INFO
     &END PRINT
   &END MIXED
   &SUBSYS
     &CELL
       A     6.0000000000000007E+01    0.0000000000000000E+00    0.0000000000000000E+00
       B     0.0000000000000000E+00    6.0000000000000007E+01    0.0000000000000000E+00
       C     0.0000000000000000E+00    0.0000000000000000E+00    6.0000000000000007E+01
       PERIODIC  XYZ
       MULTIPLE_UNIT_CELL  1 1 1
     &END CELL
     &COORD
CT   -3.3109334003319196E-01    5.1844665365266918E-01    2.6096706642976026E+00
CT   -1.0188111867976708E+00    9.0653322710369688E-01    1.3870160068378239E+00
CT   -4.8261529044356855E-01    4.6735070128429690E-01    1.1834421177788915E-01
CT   -8.9714726985905147E-01    9.9954933970406012E-01   -1.1388392095009623E+00
CT    5.7816903587443080E-01   -4.3494789408268247E-01    2.5338768657558508E+00
HA   -5.5624031155473441E-01    9.2523683296641235E-01    3.5857205715186748E+00
HA   -1.8174901243876982E+00    1.6551398914798037E+00    1.3054380468319391E+00
HA   -1.5456848827807277E+00    1.8563673619335499E+00   -1.1415110048917971E+00
HA    1.1381578238840353E+00   -8.2792262769508540E-01    3.4363605839917546E+00
CT    6.0329961677760358E-01   -5.1815889312370089E-01    1.2493118431099368E-01
CT   -4.0822242547735299E-01    3.5443080814207872E-01   -2.3782680675050427E+00
CT    1.1116925738223304E+00   -1.0129725664530000E+00    1.2620844358363499E+00
CT    1.0962372576766564E+00   -1.0754852691640813E+00   -1.0688285847054728E+00
CT    6.3703951330775599E-01   -5.0611267031104379E-01   -2.3934767087027731E+00
HA   -8.9279414634378873E-01    7.2748343103515511E-01   -3.2987446482183049E+00
HA    1.8577503333175116E+00   -1.8121580470516245E+00    1.1362655942926441E+00
HA    1.9401316879863737E+00   -1.6907685026042156E+00   -1.1109607630387031E+00
HA    1.0213283741094388E+00   -8.2171854474168537E-01   -3.3114233132977948E+00
CT    5.0243398680069715E+00   -8.7911988555315923E-01    2.3440839344422542E+00
CT    5.0534846548261285E+00   -1.5342609383570467E+00    1.1599971247717653E+00
CT    5.0889983567458357E+00   -7.7401126820056443E-01   -3.8179901719025099E-02
CT    4.8943048440473298E+00   -1.3884149217779316E+00   -1.3142452717091699E+00
CT    5.1303673428204224E+00    5.7135160391434847E-01    2.4333178600296606E+00
HA    4.8768227932827708E+00   -1.4410024951506613E+00    3.3089871856425468E+00
HA    4.9120844351708195E+00   -2.5581909336391235E+00    1.1032745826186050E+00
HA    4.5926984415153402E+00   -2.5023915480550945E+00   -1.3206920805145943E+00
HA    5.2834120788515850E+00    1.1979897519329783E+00    3.3177980446477240E+00
CT    5.2912911296991929E+00    5.9930558694982095E-01    4.5185697048269968E-02
CT    5.0097946746152262E+00   -6.1136579620288889E-01   -2.4703081434230318E+00
CT    5.4536825731433618E+00    1.2709534304844985E+00    1.3124170801475015E+00
CT    5.4881642273919748E+00    1.2712017075098387E+00   -1.1380590188647792E+00
CT    5.4502245770528477E+00    7.2085784763677230E-01   -2.3950911875167611E+00
HA    4.8024718585413959E+00   -9.5075798943136769E-01   -3.4970205667643723E+00
HA    5.6621932439255094E+00    2.3771407293246130E+00    1.3391147057633150E+00
HA    5.8940103643835728E+00    2.3122479788367993E+00   -1.0647570536455304E+00
HA    5.5650025238737406E+00    1.3176989491614750E+00   -3.3783609565452544E+00
CT    1.0246897772237686E+01   -8.2353443656389969E-01    2.4403524018614706E+00
CT    1.0499723897186930E+01   -1.4341213579976986E+00    1.1985614683308032E+00
CT    1.0237132372622806E+01   -6.3843551361729611E-01    4.9724895633557455E-02
CT    1.0613221112946785E+01   -1.1693990580687281E+00   -1.2512682966434265E+00
CT    9.5347627760075220E+00    4.0786807574768708E-01    2.4691705251334799E+00
HA    1.0402501974719071E+01   -1.3973164335097463E+00    3.3642205763185471E+00
HA    1.1029531031759804E+01   -2.4166922098392538E+00    1.1847667680943030E+00
HA    1.1085499051000772E+01   -2.1082679521307424E+00   -1.3940391386643234E+00
HA    9.0430680740727141E+00    7.0731777871474399E-01    3.3927525205119013E+00
CT    9.6726679447445250E+00    5.9751517833391077E-01    1.0921621683113701E-01
CT    1.0252006561333474E+01   -5.3240076572289685E-01   -2.4488965439467445E+00
CT    9.2488807101523633E+00    1.1517045331723315E+00    1.2797251992540244E+00
CT    9.3935183739024311E+00    1.2768004169999811E+00   -1.0736836955611941E+00
CT    9.6902999456872596E+00    7.5562136400940205E-01   -2.3516785582322224E+00
HA    1.0217466093199659E+01   -1.1426925577773051E+00   -3.3540537129197125E+00
HA    8.6771643445505351E+00    2.0151806080267165E+00    1.3133482344616438E+00
HA    8.9663538189346088E+00    2.2974051365651178E+00   -9.3043746856756648E-01
HA    9.5745041452205939E+00    1.3973493785569118E+00   -3.2143257862709653E+00
CA    1.5799978836217075E+01   -5.1266965112977025E-01    3.4878236801212998E+00
CA    1.6379030420479644E+01   -7.8615670978478425E-01    2.2618650108414169E+00
CA    1.5726213414247065E+01   -4.3330576929532677E-01    1.0465511408135650E+00
CA    1.6309419885566484E+01   -8.2380765647021148E-01   -1.9852284942905657E-01
CA    1.4403574712420342E+01    1.2843081652135574E-01    1.1127634577494490E+00
CA    1.3851010189775410E+01    3.9529619459249909E-01    2.4042293047611287E+00
CA    1.4536903848415106E+01    4.9990396692914579E-02    3.5776156625845728E+00
H    1.6259745352548300E+01   -9.0647633083618739E-01    4.3960939285231504E+00
H    1.7259821858853311E+01   -1.5123408329095667E+00    2.2428971380903944E+00
H    1.7261161299832171E+01   -1.2712446107611641E+00   -2.6305284077714575E-01
H    1.2919260875519489E+01    9.6824214242673723E-01    2.4352770982346703E+00
H    1.4167333896099167E+01    2.6573329523257222E-01    4.5621879027613685E+00
CA    1.5620831440557254E+01   -5.5049979812339112E-01   -1.4312645339323820E+00
CA    1.3789346579506734E+01    4.7775989429156263E-01   -1.2755263469121772E-01
CA    1.4398579221855144E+01    2.3699511033155871E-01   -1.3795041701304129E+00
CA    1.6114432575659233E+01   -9.2559685633269595E-01   -2.6562908411686621E+00
H    1.2808510744730171E+01    8.8013756176418634E-01   -9.0751958771363397E-02
CA    1.3736318128231767E+01    5.9908302679730518E-01   -2.5813921823206458E+00
CA    1.5392752909023903E+01   -5.6399927567268504E-01   -3.8485773935697116E+00
H    1.7064704093729237E+01   -1.4435469239663388E+00   -2.7322385711256589E+00
CA    1.4203134941697542E+01    1.2116660825961638E-01   -3.8434867001519528E+00
H    1.2690354464800400E+01    9.3876662250082921E-01   -2.4959702673305166E+00
H    1.5781648918097043E+01   -8.8367818839953960E-01   -4.7954310927212473E+00
H    1.3617021355892543E+01    1.9881519667266079E-01   -4.7624226930058438E+00
CA    2.0166680839971082E+01   -5.7918990591532782E-01    3.6453138729798646E+00
CA    2.0661603936715405E+01   -1.2365976028289316E+00    2.4797558439069793E+00
CA    2.0342754241220888E+01   -6.6043906444359446E-01    1.2145833544213984E+00
CA    2.0750278828134299E+01   -1.3432603329035875E+00    5.8564406122150886E-02
CA    1.9601222708745073E+01    5.1054776536820901E-01    1.1138480095047045E+00
CA    1.9305248903092153E+01    1.2465912943200039E+00    2.3107378759479502E+00
CA    1.9520882426747644E+01    6.6397562025728241E-01    3.5942633838411271E+00
H    2.0342270343552123E+01   -1.0433952921920289E+00    4.6658504594678316E+00
H    2.1191872987853941E+01   -2.1983716573796199E+00    2.6045954446686563E+00
H    2.1402792198665569E+01   -2.1904127559026327E+00    8.3818050630698138E-02
H    1.8775875816162859E+01    2.2025870419188087E+00    2.3294313870282335E+00
H    1.9241326006471411E+01    1.1922523405419267E+00    4.4865425386398217E+00
CA    2.0420947952089968E+01   -7.9747050698133193E-01   -1.2105233332817316E+00
CA    1.9467544688943320E+01    1.2093021858114819E+00   -1.2581825576766442E-01
CA    1.9857010772083672E+01    4.9965501734168272E-01   -1.3040073234002163E+00
CA    2.0733294534571499E+01   -1.5208341548315296E+00   -2.4140453765792631E+00
H    1.8893670808211787E+01    2.0904868697808374E+00   -1.5800404358751971E-01
CA    1.9586202468908770E+01    1.1050981927425225E+00   -2.5412113454698342E+00
CA    2.0524978378775174E+01   -8.6013381216003515E-01   -3.6852357756301193E+00
H    2.1163473060116591E+01   -2.5394229029175586E+00   -2.4846876005614726E+00
CA    1.9824595098569368E+01    3.8265352803693808E-01   -3.7104551846712535E+00
H    1.9000543950059150E+01    1.9834409691557509E+00   -2.4433461790718360E+00
H    2.0777201219803846E+01   -1.3199712604644556E+00   -4.6132072476842287E+00
H    1.9664610369718005E+01    8.6307538030188291E-01   -4.6422871637992706E+00
CA    2.5172231324652042E+01   -6.8298149212511594E-01    3.8639796023803479E+00
CA    2.5703138662025289E+01   -1.1284158304495104E+00    2.6505512355576197E+00
CA    2.5277198478121978E+01   -6.9754651001639223E-01    1.3884742340050080E+00
CA    2.5805400867951182E+01   -1.2459319745940252E+00    2.2813001072743361E-01
CA    2.4280506193773803E+01    2.9867068674949304E-01    1.2841705628950091E+00
CA    2.3765487000066056E+01    7.7777221632139526E-01    2.4785914788852197E+00
CA    2.4156803036960714E+01    2.5567187521755191E-01    3.7446521475345720E+00
H    2.5574067599670318E+01   -1.0899317523899970E+00    4.7925376954371339E+00
H    2.6493916060323492E+01   -1.7936449191094785E+00    2.7319582706483301E+00
H    2.6533159720046413E+01   -2.1174165291978215E+00    3.2893844096648561E-01
H    2.2884494102320723E+01    1.4511882951096546E+00    2.5018344450055841E+00
H    2.3784824088874544E+01    6.9130537053884922E-01    4.7113059924907326E+00
CA    2.5362050715196549E+01   -8.0601961668109690E-01   -1.0683112347992618E+00
CA    2.3872238845322219E+01    8.4236687149793799E-01    2.2901229596048636E-02
CA    2.4460969174263990E+01    3.5213304559994496E-01   -1.1636010778976773E+00
CA    2.5852460833591405E+01   -1.3573954843046099E+00   -2.2878678815679416E+00
H    2.3241395384228056E+01    1.7140582950582686E+00   -8.5815219098211812E-02
CA    2.4045247943014402E+01    8.4717899452192014E-01   -2.3969340792068516E+00
CA    2.5424218064162613E+01   -7.4259615237138776E-01   -3.5132448865957366E+00
H    2.6447898374824454E+01   -2.2219882834997131E+00   -2.1706419566679536E+00
CA    2.4525010691270232E+01    2.9940136029303327E-01   -3.5930191089699886E+00
H    2.3466654183269444E+01    1.7073804399113737E+00   -2.4406549940453242E+00
H    2.5830314429889594E+01   -1.0911000055838642E+00   -4.4774512552579324E+00
H    2.4203365776775069E+01    7.1600006177480346E-01   -4.5569744384877930E+00
Ne   -2.8961294290102369E+01   -3.1783287358932125E+02   -1.6937103359095670E+02
Ne   -2.9946113547328667E+02    1.6186052478531224E+02   -5.7618206654376102E+01
Ne   -2.5423325596734171E+02   -2.1640060425274137E+02   -1.6699031120352544E+01
Ne   -3.7238126447412486E+02   -1.0547809027615848E+02   -6.2453348075681554E+01
Ne    2.5586206143659260E+02   -2.4750778317118318E+02   -4.1120130894273970E+01
Ne   -9.2273388845009549E+01    1.7932273659562956E+00   -2.7267247861158648E+02
Ne   -4.3961180334982657E+02    3.2897425472440904E+02   -4.2396409564887205E+02
Ne   -2.8317317865037062E+01   -1.5387162569564958E+02   -1.5980482435058073E+02
Ne    1.7490986592094006E+02    2.8657470987709829E+01    2.9225152721983221E+02
Ne   -1.6294470141786800E+02    1.4263439739027157E+02   -4.5176091766484632E+01
Ne   -4.1312890676081963E+02    6.5426849809091493E+01    2.8138160894247312E+02
Ne   -8.5483759018476917E+00   -2.2964217158864645E+02   -1.4906380556294769E+02
Ne    1.4237646237244351E+02   -5.5200029809484661E+01    2.0922927397569609E+02
Ne    1.0766919345899251E+02   -2.4616307440960983E+02    8.9409330969876535E+01
Ne    4.4849623378399812E+01    1.9008133447315294E+02    1.6653046461195598E+02
Ne   -2.0238948982112831E+02   -9.9697767867268041E+01   -2.6076808846132656E+02
Ne   -1.8698368088340729E+02    2.1644628003477024E+02    1.8927301064710744E+02
Ne    7.9388487313775116E+00    3.0831042618896571E+00   -1.4829503099899409E+02
Ne   -3.3041076194171382E+02   -1.2291162752293043E+02    8.7071899114772826E+00
Ne   -8.8203127092898015E+01   -2.8345485535828676E+01    5.5130647655218006E+01
Ne    3.3777451404076135E+02    2.5527873770816174E+02    2.8068605899750264E+02
Ne    4.7515962013861360E+02    4.5757780259648804E+01    2.7308713763532427E+02
Ne   -3.5355534531908023E+02   -2.0345534756442481E+02   -1.3847375987912221E+02
Ne   -9.6101558047014763E+01    1.7958039732679495E+01    1.3330608642060847E+02
Ne   -3.8887614205822626E+02    2.5302669347614878E+02    3.8748804709926731E+01
Ne   -2.0736627709815252E+02   -2.4167176856695957E+02   -3.4830220914877501E+01
Ne   -1.1350801916118119E+01   -1.3906114383902403E+02    2.5454342886139781E+01
Ne   -2.2072996067892103E+02   -2.4916140652703721E+01    2.0866558569301941E+02
Ne    2.7280583053297056E+02   -1.1072845184230935E+02    9.1694042902251169E+01
Ne    4.6453450435565507E+01   -9.9141209578418582E+01   -2.1713163548319008E+02
Ne   -2.5542008625613167E+02   -3.4869233448214345E+02   -9.2957558026970105E+01
Ne    6.1680214564673683E+01   -3.4915243357321731E+02    1.2830398013991251E+02
Ne   -2.1514957326467629E+02    4.6123633978210833E+01    3.1907243810958272E+02
Ne    4.9257952535997397E+01   -1.6424899068515504E+02   -4.9105522805811393E+02
Ne   -9.5078800825731221E+01   -1.4617038810376517E+01   -1.3922509548751003E+02
Ne   -3.7548151124610666E+02    1.3101213917916547E+02    5.4429441030960038E+02
Ne   -1.3093517963494594E+02   -1.8805824097842651E+02    6.2719261877622723E-01
Ne    2.3283699547763851E+02   -2.7233886549599089E+02   -3.6463643998178907E+02
Ne   -2.4886772301538070E+02   -8.5460243534101039E+01   -1.6200357837983105E+02
Ne    4.6725193805752480E+02    3.4584201733846487E+02    1.1774875262712644E+02
Ne   -2.8119888966471905E+01    5.0669747610039494E+01    1.9803566843892628E+02
Ne   -1.9425772330784457E+02   -7.6171295768963873E+01   -7.1098619198076179E+01
Ne   -1.1810459739233872E+02   -2.7825069900755346E+02   -2.9271797978837685E+02
Ne   -4.4002800306514040E+01   -1.5661319154835041E+02    2.4387641963849160E+02
Ne    4.9743126229353925E+02    2.3537290364263345E+01    1.8975596266921124E+02
Ne   -2.6304793196412282E+02    2.2473674911609859E+02    1.0827097920274329E+02
Ne   -3.9808606017837701E+02   -1.1870083672370919E+02    3.8817859241351994E+02
Ne    4.5901453979056032E+02    4.3806288155772694E+02   -1.6962278493801944E+02
Ne   -6.8718174982024422E+01   -1.9135752253722947E+02    4.3141498563955486E+02
Ne    6.0311137848799626E+02    1.4916724265492013E+02    2.5799038884450874E+02
Ne   -8.5282727590796696E+01   -1.0662684214771431E+02   -3.1004517692970410E+02
Ne    1.3753070738487216E+02    2.4622960035721587E+02   -2.3017220846186504E+02
Ne    1.1529626036912883E+02   -2.1451331041156831E+02    2.3675240203180851E+02
Ne   -6.2508882663256236E+02    4.0812338808632819E+02   -6.0698791785918513E+02
Ne   -3.0352555652757928E+01    5.2682617421594848E+01   -8.2973363212835608E+01
Ne   -1.9764793617481408E+02   -1.8005560193605856E+01   -3.9776211521694313E+02
Ne    9.9980998463581287E+01    8.7918584819766735E+01   -1.3563437083562272E+02
Ne    4.4479492422856502E+01   -2.7314643022816153E+01   -2.7026833370798039E+02
Ne   -3.8833257495838438E+02    1.4237857841644703E+02   -5.4498968100600780E+02
Ne    1.6868134881810934E+02    1.4042578524621308E+02   -9.5217627253871754E+01
Ne    1.3041771969905608E+02   -2.3437326607402355E+02   -1.3011343366066401E+02
Ne    1.3162330595051966E+02    5.1599029340257255E+02    4.3843715212864561E+02
Ne   -8.4196963356756001E+01    8.9511859792804060E+01   -1.3330087649161197E+02
Ne    9.9886810665435021E+01   -2.4576718287676067E+02   -5.2296287891015453E+01
Ne    3.6742534610517004E+02    4.9567456717269216E+01   -4.0726703184622909E+02
Ne   -1.8512712058986452E+02    5.0321137850639005E+01   -1.5532809176352995E+01
Ne    1.6757141319970714E+01   -3.2383828443839758E+02    1.0359590296268555E+01
Ne   -1.4809354370442188E+02   -5.4049024981910485E+01    4.5422052939161262E+01
Ne   -2.1258086368110508E+01    1.1150189485515382E+02   -3.0598303096377344E+02
Ne    2.7469902607957049E+01    1.2206475057218786E+02    4.8213399754413302E+01
Ne    9.0080233673337105E+01   -1.7745577462455071E+02   -7.9309647015813184E+01
Ne   -1.9114481889376080E+02   -1.5678427419038249E+02    3.1523142738454351E+02
Ne   -5.3088739926254118E+02    4.3566055525431250E+02    1.0333915702478969E+02
Ne    3.3849906833097879E+02    2.0788476598595065E+02    4.0833785518296551E+01
Ne   -2.2947003396792536E+02   -2.8869295281241637E+01   -5.0345910407767413E+01
Ne   -1.2346460177536362E+02    5.0415459949966635E+02   -4.0617552033838786E+02
Ne   -9.8322219486513475E+01   -6.4091895910171260E+01   -3.5555812085055756E+01
Ne   -1.6070353153907149E+02   -2.2648032312742365E+02   -3.8892134924857589E+02
Ne   -6.2707491655558535E+01   -1.0994691841915652E+02   -1.9505146974614783E+02
Ne   -2.2358152864928354E+02    1.6636752380436550E+02   -1.1235307420720996E+02
Ne   -1.3226728435975633E+02    4.7373466837522579E+02   -2.3694277198776248E+02
Ne    1.6355796112728598E+02    1.9324155468267952E+02    3.7844649645615425E+02
Ne   -1.5300034528322399E+02    1.5814037133222880E+02    1.4055863011866525E+00
Ne    1.1514791413971279E+01    1.8936448402634198E+02    5.7601633016560743E+02
Ne    2.5449803163249111E+01    3.4090284330514542E+01   -4.9835332516591188E+02
Ne    1.3154527917026516E+02   -4.1150377038204752E+01   -1.6127715746202782E+02
Ne   -2.1672335196145745E+01    2.0270760155326096E+02   -1.1646406809577476E+01
Ne   -5.5820736010268021E+01    1.7136440087267277E+02   -1.7796853024937317E+02
Ne    5.8692165927070072E+01    7.2780127081023835E+01    9.6980845891745687E+01
Ne    1.4791052117102166E+02    1.1681423195790389E+02    5.5112070800744800E+02
Ne    3.6463757220376232E+02    2.4860121629231281E+02   -1.6680808786071759E+02
Ne    1.9880351766373488E+02    9.1718752795487415E+00    9.3833935003093401E+01
Ne   -2.3265539276682478E+02    2.1544109859741769E+02   -3.4894535984637616E+02
Ne   -3.3782620198582322E+01   -2.4710195231301256E+01    3.0694440883645370E+01
Ne   -2.1328625741254638E+02   -2.6110524740723429E+02    1.5886384784896234E+02
Ne    4.9373139609513748E+02   -4.4356921642299568E+01    2.0670663588853100E+02
Ne   -1.7728146459429547E+02    2.2934658998570546E+02   -3.5524404752259466E+02
Ne    5.9160172973011655E+01   -4.5530348521856695E+01   -4.5537021362762596E+02
Ne    2.7409918700022327E+01    2.2598166549486348E+02    2.9850203008490933E+01
Ne   -7.3571452056956034E+01   -5.1282147781916628E+01    2.0369673818355128E+02
Ne   -1.8596612513551150E+02    2.5320966365673087E+02    2.1111032133750294E+02
Ne    2.0116499911029013E+02    9.9368794356050927E+01   -3.6124510853310554E+01
Ne    2.1767520785663217E+02    1.3047586714815472E+02   -1.6411437113370124E+02
Ne   -1.8392425431656989E+02   -1.7224168733253424E+02   -3.2717678959775554E+02
Ne   -2.0547584158649119E+01    1.4507050629278848E+02    1.5634226737802885E+02
Ne   -3.3672258256997577E+02    1.0572757465205036E+02   -1.8867017256607042E+02
Ne    2.7984245222238656E+02    1.0025352163894078E+02   -7.8240493376290857E+01
Ne   -4.3727901610145256E+02   -8.7564858899374798E+00   -6.7852903822603537E+01
Ne    2.3340203685212469E+01    1.9314645108864286E+02   -2.3189613311348913E+02
Ne    6.4919246846696592E+02    8.9605881672455709E+01    1.7098039098256574E+01
Ne    2.5773696700661640E+02    1.1291525035287020E+02   -2.2495901596007457E+01
Ne   -5.0956844188504377E+01   -1.9156301960847591E+02    2.2572445934647573E+02
Ne    5.5632707914402062E+01   -6.9055057574722775E+02   -1.9888067741665301E+02
Ne   -1.7501946640373424E+02    5.7066424059526514E+02   -1.2976749051762414E+02
Ne   -5.0302647871595639E+02   -8.5053819347508494E+01   -3.1133638726629761E+02