#     Step Nr.          Time[fs]        Kin.[a.u.]          Temp[K]            Pot.[a.u.]        Cons Qty[a.u.]        UsedTime[s]
         0            0.000000         2.412123729       564.840579357         2.446232237         4.858355966         0.000000000
         1            0.100000         2.440711635       571.534932970         2.417622463         4.858334098         0.733691001
         2            0.200000         2.467926337       577.907727287         2.390387005         4.858313343         0.182093235
         3            0.300000         2.493438360       583.881809487         2.364855785         4.858294145         0.198447192
         4            0.400000         2.516943073       589.385845575         2.341333706         4.858276780         0.221394144
         5            0.500000         2.538165204       594.355375383         2.320096267         4.858261471         0.176375642
         6            0.600000         2.556862429       598.733654720         2.301385972         4.858248402         0.182432817
         7            0.700000         2.572828478       602.472381632         2.285409276         4.858237753         0.192639496
         8            0.800000         2.585895729       605.532304934         2.272333912         4.858229640         0.192030095
         9            0.900000         2.595937308       607.883714724         2.262286866         4.858224174         0.200209325
        10            1.000000         2.602868628       609.506803431         2.255352780         4.858221407         0.203225231
        11            1.100000         2.606648384       610.391898864         2.251572995         4.858221379         0.172647189
        12            1.200000         2.607278962       610.539559627         2.250945093         4.858224055         0.193314873
        13            1.300000         2.604806228       609.960526093         2.253423179         4.858229407         0.179076908
        14            1.400000         2.599318800       608.675549740         2.258918546         4.858237345         0.204965444
        15            1.500000         2.590946783       606.715096912         2.267300984         4.858247767         0.209502311
        16            1.600000         2.579859945       604.118921639         2.278400564         4.858260509         0.170633620
        17            1.700000         2.566265280       600.935495270         2.292010118         4.858275399         0.183120845
        18            1.800000         2.550404135       597.221333179         2.307888094         4.858292229         0.180813344
        19            1.900000         2.532548933       593.040228212         2.325761842         4.858310776         0.178165924
        20            2.000000         2.512999478       588.462384325         2.345331291         4.858330769         0.136984551
        21            2.100000         2.492078836       583.563453475         2.366273103         4.858351940         0.149781268
        22            2.200000         2.470128917       578.423499507         2.388245080         4.858373997         0.116469672
        23            2.300000         2.447505855       573.125917361         2.410890802         4.858396657         0.173569638
        24            2.400000         2.424575211       567.756309701         2.433844378         4.858419589         0.159904636
        25            2.500000         2.401707007       562.401323229         2.456735466         4.858442473         0.153845934
        26            2.600000         2.379221390       557.135926481         2.479243632         4.858465023         0.174251202
        27            2.700000         2.357528074       552.056060465         2.500958847         4.858486921         0.197783772
        28            2.800000         2.336980662       547.244527744         2.521527206         4.858507868         0.211245488
        29            2.900000         2.317917521       542.780562957         2.540610055         4.858527577         0.206679080
        30            3.000000         2.300657179       538.738754547         2.557888631         4.858545810         0.206442200
        31            3.100000         2.285494004       535.188034486         2.573068237         4.858562241         0.248142933
        32            3.200000         2.272694141       532.190724668         2.585882547         4.858576688         0.259236084
        33            3.300000         2.262491863       529.801684447         2.596097084         4.858588947         0.163503347
        34            3.400000         2.255086371       528.067560047         2.603512467         4.858598838         0.200988919
        35            3.500000         2.250639016       527.026134744         2.607967207         4.858606222         0.208811395
        36            3.600000         2.249271028       526.705796670         2.609339965         4.858610992         0.268116327
        37            3.700000         2.251061787       527.125133953         2.607551277         4.858613064         0.227005795
        38            3.800000         2.256047644       528.292658892         2.602564781         4.858612425         0.230802400
        39            3.900000         2.264221266       530.206654051         2.594387786         4.858609052         0.199756099
        40            4.000000         2.275531593       532.855163220         2.583071397         4.858602990         0.191963671
        41            4.100000         2.289884349       536.216109834         2.568709952         4.858594302         0.199329471
        42            4.200000         2.307143099       540.257545203         2.551439987         4.858583085         0.179924546
        43            4.300000         2.327130901       544.938035594         2.531438581         4.858569482         0.160730153
        44            4.400000         2.349632526       550.207181060         2.508921131         4.858553658         0.161642531
        45            4.500000         2.374397134       556.006243247         2.484138674         4.858535808         0.175288213
        46            4.600000         2.401141371       562.268869858         2.457374800         4.858516171         0.244188922
        47            4.700000         2.429552985       568.921941798         2.428941993         4.858494979         0.295130827
        48            4.800000         2.459294806       575.886504678         2.399177708         4.858472514         0.226370774
        49            4.900000         2.490008959       583.078755978         2.368440102         4.858449061         0.182583878
        50            5.000000         2.521321453       590.411119046         2.337103458         4.858424911         0.185778396
        51            5.100000         2.552846945       597.793359406         2.305553431         4.858400375         0.214467926
        52            5.200000         2.584193668       605.133737988         2.274182109         4.858375777         0.195415523
        53            5.300000         2.614968558       612.340211789         2.243382899         4.858351457         0.184924958
        54            5.400000         2.644783332       619.321858032         2.213544803         4.858328136         0.225405242
        55            5.500000         2.673230992       625.983370532         2.185083133         4.858314124         0.258641804
        56            5.600000         2.699996326       632.250937390         2.158299348         4.858295673         0.247765351
        57            5.700000         2.724763309       638.050555701         2.133490901         4.858254209         0.248288270
        58            5.800000         2.747029038       643.264462105         2.111191132         4.858220170         0.219537606
        59            5.900000         2.766737482       647.879536055         2.091459494         4.858196977         0.242649214
        60            6.000000         2.783349144       651.769444446         2.074828042         4.858177186         0.182921538
        61            6.100000         2.796834949       654.927379408         2.061327514         4.858162462         0.202108147
        62            6.200000         2.806947678       657.295450229         2.051204914         4.858152592         0.206562029
        63            6.300000         2.813524037       658.835418686         2.044621536         4.858145573         0.191377763
        64            6.400000         2.816448871       659.520319235         2.041692477         4.858141347         0.208761754
        65            6.500000         2.815651494       659.333599653         2.042488445         4.858139939         0.176904766
        66            6.600000         2.811106130       658.269223934         2.047035246         4.858141376         0.185892362
        67            6.700000         2.802832249       656.331751307         2.055313397         4.858145646         0.382833241
        68            6.800000         2.790894379       653.536292031         2.067258321         4.858152700         0.156865038
        69            6.900000         2.775401399       649.908342319         2.082761071         4.858162470         0.155666061
        70            7.000000         2.756505302       645.483493611         2.101669527         4.858174829         0.156571981
        71            7.100000         2.734399405       640.307014722         2.123790225         4.858189630         0.156435249
        72            7.200000         2.709316052       634.433312907         2.148890665         4.858206717         0.155387210
        73            7.300000         2.681523780       627.925270768         2.176702082         4.858225863         0.156077065
        74            7.400000         2.651324081       620.853487671         2.206922758         4.858246839         0.155628091
        75            7.500000         2.619047731       613.295420815         2.239221665         4.858269396         0.155795101
        76            7.600000         2.585050759       605.334440773         2.273242512         4.858293271         0.155766418
        77            7.700000         2.549710120       597.058817503         2.308608043         4.858318163         0.161760136
        78            7.800000         2.513419085       588.560642581         2.344924682         4.858343767         0.156761417
        79            7.900000         2.476582458       579.934707965         2.381787322         4.858369780         0.094975339
        80            8.000000         2.439611601       571.277340917         2.418784279         4.858395880         0.077681705
        81            8.100000         2.402919414       562.685229520         2.455502355         4.858421769         0.077851392
        82            8.200000         2.366915306       554.254243445         2.491531812         4.858447118         0.151529010
        83            8.300000         2.332000199       546.078266078         2.526471414         4.858471613         0.155673372
        84            8.400000         2.298561641       538.248048132         2.559933326         4.858494967         0.086347600
        85            8.500000         2.266969043       530.850093635         2.591547864         4.858516907         0.162051944
        86            8.600000         2.237569245       523.965621471         2.620967901         4.858537146         0.142226629
        87            8.700000         2.210682295       517.669576052         2.647873166         4.858555461         0.112868411
        88            8.800000         2.186597576       512.029721620         2.671974047         4.858571623         0.109895119
        89            8.900000         2.165570338       507.105829347         2.693015114         4.858585451         0.089644825
        90            9.000000         2.147818617       502.948956338         2.710778157         4.858596774         0.084875364
        91            9.100000         2.133520679       499.600846226         2.725084782         4.858605461         0.091514127
        92            9.200000         2.122812893       497.093432632         2.735798525         4.858611418         0.099260489
        93            9.300000         2.115788159       495.448469410         2.742826410         4.858614569         0.098850811
        94            9.400000         2.112494921       494.677300669         2.746119975         4.858614897         0.140703369
        95            9.500000         2.112936649       494.780738988         2.745675751         4.858612400         0.164086493
        96            9.600000         2.117071921       495.749084542         2.741535195         4.858607116         0.086469740
        97            9.700000         2.124815070       497.562276981         2.733784059         4.858599128         0.159278292
        98            9.800000         2.136037369       500.190172867         2.722551170         4.858588539         0.167456858
        99            9.900000         2.150568798       503.592958937         2.708006687         4.858575486         0.136068977
       100           10.000000         2.168200280       507.721675980         2.690359857         4.858560137         0.090721160
       101           10.100000         2.188686397       512.518855252         2.669856307         4.858542703         0.087104604
       102           10.200000         2.211748564       517.919261539         2.646774842         4.858523406         0.156352773
       103           10.300000         2.237078600       523.850728295         2.621423875         4.858502475         0.123165214
       104           10.400000         2.264342689       530.235087463         2.594137516         4.858480205         0.190547425
       105           10.500000         2.293185643       536.989165081         2.565271203         4.858456847         0.120058119
       106           10.600000         2.323235401       544.025836560         2.535197328         4.858432729         0.085058443
       107           10.700000         2.354107755       551.255133348         2.504300371         4.858408126         0.144181281
       108           10.800000         2.385411196       558.585376650         2.472972169         4.858383365         0.129036544
       109           10.900000         2.416751866       565.924337826         2.441606890         4.858358756         0.178021852
       110           11.000000         2.447738542       573.180404998         2.410596074         4.858334616         0.083242130
       111           11.100000         2.477987504       580.263723746         2.380323726         4.858311230         0.135494461
       112           11.200000         2.507127333       587.087319862         2.351161542         4.858288875         0.134094285
       113           11.300000         2.534803596       593.568196653         2.323464240         4.858267837         0.167286364
       114           11.400000         2.560683206       599.628355705         2.297565185         4.858248390         0.109556291
       115           11.500000         2.584458522       605.195758166         2.273772242         4.858230765         0.098432332
       116           11.600000         2.605851126       610.205207054         2.252364040         4.858215166         0.201008951
       117           11.700000         2.624614151       614.598894677         2.233587016         4.858201167         0.101372246
       118           11.800000         2.640538087       618.327760189         2.217647855         4.858185942         0.108622793
       119           11.900000         2.653452906       621.351988938         2.204724231         4.858177137         0.179656396
       120           12.000000         2.663226378       623.640616934         2.194944846         4.858171225         0.179951534
       121           12.100000         2.669767662       625.172371820         2.188400319         4.858167981         0.132642612
       122           12.200000         2.673029099       625.936093974         2.185138312         4.858167411         0.101131320
       123           12.300000         2.673006040       625.930694089         2.185163482         4.858169522         0.106386233
       124           12.400000         2.669736690       625.165119319         2.188437569         4.858174260         0.122035963
       125           12.500000         2.663301432       623.658191929         2.194880132         4.858181563         0.128687842
       126           12.600000         2.653821508       621.438303541         2.204369784         4.858191293         0.146415634
       127           12.700000         2.641457336       618.543018231         2.216745998         4.858203334         0.075161029
       128           12.800000         2.626406240       615.018543336         2.231811273         4.858217513         0.103805305
       129           12.900000         2.608899674       610.919077547         2.249333956         4.858233630         0.073181489
       130           13.000000         2.589200041       606.306066993         2.269051414         4.858251455         0.072962325
       131           13.100000         2.567597178       601.247382261         2.290673575         4.858270753         0.071878044
       132           13.200000         2.544404433       595.816398935         2.313886828         4.858291261         0.073015997
       133           13.300000         2.519954459       590.091013620         2.338358226         4.858312685         0.072606113
       134           13.400000         2.494594834       584.152618022         2.363739942         4.858334776         0.072435400
       135           13.500000         2.468683413       578.085009747         2.389673785         4.858357198         0.072465323
       136           13.600000         2.442583556       571.973275776         2.415796117         4.858379673         0.072052913
       137           13.700000         2.416659358       565.902675382         2.441742536         4.858401894         0.073270818
       138           13.800000         2.391270825       559.957510526         2.467152744         4.858423570         0.072734365
       139           13.900000         2.366769076       554.220001179         2.491675321         4.858444397         0.073134381
       140           14.000000         2.343491752       548.769212297         2.514972354         4.858464106         0.073474625
       141           14.100000         2.321758590       543.680015775         2.536723854         4.858482444         0.071947459
       142           14.200000         2.301867245       539.022112506         2.556631921         4.858499166         0.073569834
       143           14.300000         2.284089375       534.859116090         2.574424672         4.858514047         0.071992362
       144           14.400000         2.268667040       531.247709201         2.589859840         4.858526880         0.072107643
       145           14.500000         2.255809550       528.236904972         2.602727959         4.858537509         0.073078843
       146           14.600000         2.245690708       525.867402783         2.612855074         4.858545782         0.071765861
       147           14.700000         2.238446558       524.171059541         2.620105034         4.858551593         0.075238531
       148           14.800000         2.234173655       523.170485234         2.624381211         4.858554866         0.161561400
       149           14.900000         2.232927779       522.878741739         2.625627774         4.858555553         0.141114311
       150           15.000000         2.234723208       523.299172592         2.623830444         4.858553652         0.101375436
       151           15.100000         2.239532591       524.425372891         2.619016592         4.858549183         0.115667880
       152           15.200000         2.247287330       526.241279441         2.611254879         4.858542208         0.125387944
       153           15.300000         2.257878512       528.721388389         2.600654302         4.858532815         0.089545481
       154           15.400000         2.271158338       531.831089818         2.587362796         4.858521134         0.143900869
       155           15.500000         2.286942120       535.527135845         2.571565194         4.858507314         0.094438262
       156           15.600000         2.305010758       539.758220588         2.553480783         4.858491540         0.118024008
       157           15.700000         2.325113628       544.465656169         2.533360378         4.858474006         0.106441280
       158           15.800000         2.346971901       549.584149484         2.511483062         4.858454963         0.108600788
       159           15.900000         2.370282185       555.042656568         2.488152480         4.858434665         0.135358555
       160           16.000000         2.394720601       560.765335271         2.463692767         4.858413368         0.090211540
       161           16.100000         2.419947063       566.672548622         2.438444290         4.858391353         0.159675715
       162           16.200000         2.445609766       572.681915390         2.412759152         4.858368919         0.147211952
       163           16.300000         2.471349852       578.709402531         2.386996515         4.858346367         0.101242365
       164           16.400000         2.496806082       584.670419952         2.361517901         4.858323982         0.088013310
       165           16.500000         2.521619688       590.480955930         2.336682374         4.858302062         0.086191254
       166           16.600000         2.545439123       596.058689609         2.312841772         4.858280895         0.150507685
       167           16.700000         2.567924638       601.324062637         2.290336141         4.858260780         0.086613001
       168           16.800000         2.588752784       606.201333970         2.269489170         4.858241954         0.103941435
       169           16.900000         2.607620720       610.619588126         2.250603971         4.858224691         0.088132583
       170           17.000000         2.624250246       614.513680044         2.233958986         4.858209232         0.103119835
       171           17.100000         2.638391518       617.825103882         2.219804253         4.858195771         0.075314809
       172           17.200000         2.649826353       620.502768648         2.208358142         4.858184495         0.073584344
       173           17.300000         2.658371170       622.503685825         2.199804380         4.858175551         0.109881520
       174           17.400000         2.663879494       623.793555164         2.194289572         4.858169066         0.074990882
       175           17.500000         2.666243898       624.347221525         2.191921236         4.858165135         0.110873315
       176           17.600000         2.665397579       624.149041276         2.192766234         4.858163814         0.074480157
       177           17.700000         2.661315335       623.193113020         2.196849805         4.858165140         0.117530316
       178           17.800000         2.654013940       621.483364783         2.204155150         4.858169090         0.074142920
       179           17.900000         2.643552141       619.033553169         2.214623489         4.858175629         0.112458585
       180           18.000000         2.630030059       615.867123395         2.228154634         4.858184693         0.075145092
       181           18.100000         2.613587991       612.016928261         2.244608169         4.858196161         0.075846525
       182           18.200000         2.594404739       607.524837158         2.263805178         4.858209917         0.076865699
       183           18.300000         2.572695492       602.441240644         2.285530298         4.858225790         0.077530732
       184           18.400000         2.548709153       596.824423713         2.309534434         4.858243587         0.077362731
       185           18.500000         2.522725288       590.739851285         2.335537799         4.858263086         0.077619242
       186           18.600000         2.495050685       584.259363500         2.363233367         4.858284053         0.076995855
       187           18.700000         2.466015535       577.460279691         2.392290682         4.858306217         0.077173475
       188           18.800000         2.435969371       570.424449814         2.422359940         4.858329312         0.077179175
       189           18.900000         2.405276642       563.237215311         2.453076411         4.858353054         0.077262506
       190           19.000000         2.374312177       555.986349159         2.484064989         4.858377167         0.077437460
       191           19.100000         2.343456576       548.760975215         2.514944747         4.858401323         0.077732012
       192           19.200000         2.313091389       541.650440524         2.545333846         4.858425236         0.077592868
       193           19.300000         2.283594326       534.743191799         2.574854284         4.858448610         0.077396011
       194           19.400000         2.255334576       528.125681648         2.603136574         4.858471150         0.077232517
       195           19.500000         2.228668181       521.881282963         2.629824404         4.858492584         0.077288304
       196           19.600000         2.203933544       516.089238979         2.654579092         4.858512636         0.084513780
       197           19.700000         2.181447195       510.823670793         2.677083866         4.858531062         0.103004148
       198           19.800000         2.161499808       506.152644348         2.697047819         4.858547627         0.072689740
       199           19.900000         2.144352509       502.137307014         2.714209617         4.858562126         0.071453454
       200           20.000000         2.130233628       498.831126365         2.728340750         4.858574379         0.071607046
