 DBCSR| Multiplication driver                                               XSMM
 DBCSR| Multrec recursion limit                                              512
 DBCSR| Multiplication stack size                                           1000
 DBCSR| Maximum elements for images                                    UNLIMITED
 DBCSR| Randmat seed                                                    12341313
 DBCSR| Multiplication size stacks                                             3


  **** **** ******  **  PROGRAM STARTED AT               2021-04-29 14:23:29.619
 ***** ** ***  *** **   PROGRAM STARTED ON               bulstake.phys.ucl.ac.uk
 **    ****   ******    PROGRAM STARTED BY                             sgiannini
 ***** **    ** ** **   PROGRAM PROCESS ID                                 13005
  **** **  *******  **  PROGRAM STARTED IN /scratch/sgiannini/REG_TEST_MERGING/3
                                           7-071a0540f1_code_extension_V3_ADJ/ru
                                           n-fssh-UNMOD_SH

 CP2K| version string:                    CP2K version 4.0 (Development Version)
 CP2K| source code revision number:                                  git:1080fc1
 CP2K| cp2kflags: libint fftw3 libxc quip smm_dnn smm libxsmm libderiv_max_am1=5
 CP2K|             libint_max_am=6
 CP2K| is freely available from                            https://www.cp2k.org/
 CP2K| Program compiled at                          Thu 29 Apr 10:11:08 BST 2021
 CP2K| Program compiled on                               bulstake.phys.ucl.ac.uk
 CP2K| Program compiled for                                         local_hetero
 CP2K| Data directory path           /scratch/sgiannini/flavoured-cptk/cp2k/data
 CP2K| Input file name                                                   run.inp

 GLOBAL| Force Environment number                                              1
 GLOBAL| Basis set file name                                           POTENTIAL
 GLOBAL| MM Potential file name                                     MM_POTENTIAL
 GLOBAL| Coordinate file name                                       pos-init.xyz
 GLOBAL| Force Environment number                                              2
 GLOBAL| Basis set file name                                           POTENTIAL
 GLOBAL| MM Potential file name                                     MM_POTENTIAL
 GLOBAL| Coordinate file name                                       pos-init.xyz
 GLOBAL| Force Environment number                                              3
 GLOBAL| Basis set file name                                           POTENTIAL
 GLOBAL| MM Potential file name                                     MM_POTENTIAL
 GLOBAL| Coordinate file name                                       pos-init.xyz
 GLOBAL| Method name                                                        CP2K
 GLOBAL| Project name                                                        run
 GLOBAL| Preferred FFT library                                             FFTW3
 GLOBAL| Preferred diagonalization lib.                                       SL
 GLOBAL| Run type                                                             MD
 GLOBAL| All-to-all communication in single precision                          F
 GLOBAL| FFTs using library dependent lengths                                  F
 GLOBAL| Global print level                                                  LOW
 GLOBAL| Total number of message passing processes                             1
 GLOBAL| Number of threads for this process                                    1
 GLOBAL| This output is from process                                           0
 GLOBAL| CPU model name :  Intel(R) Xeon(R) CPU E5-2687W v4 @ 3.00GHz

 MEMORY| system memory details [Kb]
 MEMORY|                        rank 0           min           max       average
 MEMORY| MemTotal             65894336      65894336      65894336      65894336
 MEMORY| MemFree               6906236       6906236       6906236       6906236
 MEMORY| Buffers                  8744          8744          8744          8744
 MEMORY| Cached               40779116      40779116      40779116      40779116
 MEMORY| Slab                  3236700       3236700       3236700       3236700
 MEMORY| SReclaimable          2479316       2479316       2479316       2479316
 MEMORY| MemLikelyFree        50173412      50173412      50173412      50173412

 TOTAL NUMBER OF FORCE EVALS           3
 NOTE:n_subforce_eval           2
 DECOMP =  T
 DECOMP =  T

 MD| Molecular Dynamics Protocol 
 MD| Ensemble Type                                                           NVE
 MD| Number of Time Steps                                                    200
 MD| Time Step [fs]                                                         0.10
 MD| Temperature [K]                                                      400.00
 MD| Temperature tolerance [K]                                              0.00
 MD| Print MD information every                                        1 step(s)
 MD| File type     Print frequency[steps]                             File names
 MD| Coordinates          200                                      run-pos-1.xyz
 MD| Velocities             1                                      run-vel-1.xyz
 MD| Energies               1                                         run-1.ener
 MD| Dump                 200                                      run-1.restart

 ROT| Rotational Analysis Info 
 ROT| Principal axes and moments of inertia in atomic units:
 ROT|                                1                 2                 3
 ROT| EIGENVALUES            0.319196005E+10   0.583971964E+10   0.882037602E+10
 ROT|      X                     0.997631408       0.066105605       0.019016393
 ROT|      Y                     0.066118536      -0.997811774      -0.000051363
 ROT|      Z                    -0.018971385      -0.001308578       0.999819171
 ROT| Numer of Rotovibrational vectors:     6

 Calculation of degrees of freedom
                                                      Number of atoms:       900
                                 Number of Intramolecular constraints:         0
                                 Number of Intermolecular constraints:         0
                                  Invariants(translation + rotations):         3
                                                   Degrees of freedom:      2697


 Restraints Information
                                  Number of Intramolecular restraints:         0
                                  Number of Intermolecular restraints:         0

 *** WARNING in motion/thermostat/thermostat_methods.F:280 :: Thermostat ***
 *** for Particles has been defined but the ensemble provided does not   ***
 *** support thermostat for Particles! Ignoring thermostat input.        ***

 ************************** Velocities initialization **************************
 Initial Temperature                                                    564.84 K
 COM velocity:           -0.000000000004     -0.000000000000      0.000000000001
 *******************************************************************************

 FIRST CALL: force_env_calc_energy_force
 RESTART_KEY F
 FOB-SH: ALLOCATION OF S MATRICES
 ACTIVE STATE           3
 FOBSH| ACTIVE STATE =            3

 ENERGY| Total FORCE_EVAL ( MIXED ) energy (a.u.):             2.446232237135226

 STEP NUMBER                  =            0
 CPU TIME [s]                 =    0.0000000000000000        0.0000000000000000     

 MD_ENERGIES| Initialization proceeding


 ******************************** GO CP2K GO! **********************************
 INITIAL POTENTIAL ENERGY[hartree]     =                      0.244623223714E+01
 INITIAL KINETIC ENERGY[hartree]       =                      0.241212372912E+01
 INITIAL TEMPERATURE[K]                =                                 564.841
 INITIAL VOLUME[bohr^3]                =                      0.580604601118E+05
 INITIAL CELL LNTHS[bohr]   =      0.7651501E+02   0.5624770E+02   0.1634991E+02
 INITIAL CELL ANGLS[deg]    =      0.9000000E+02   0.1244000E+03   0.9000000E+02
 ******************************** GO CP2K GO! **********************************
 FOBSH| *** OFF-DIAGONAL GRADIENT CALCULATION
 FOBSH| Put former active state           3 in new active state           3
 RANDOM_NUMBER_HOPPING_PROBA   5.9147270233983230E-002
 FOBSH| ACTIVE STATE =            3

 ENERGY| Total FORCE_EVAL ( MIXED ) energy (a.u.):             2.417622462883075

 FOBSH| CASE1: no hop and no trivial crossing
 ENTER integrator.F
 STEP NUMBER                  =            1
 CPU TIME [s]                 =   0.73369100131094456       0.73369100131094456     

 *******************************************************************************
 ENSEMBLE TYPE                =                                              NVE
 STEP NUMBER                  =                                                1
 TIME [fs]                    =                                         0.100000
 CONSERVED QUANTITY [hartree] =                               0.485833409768E+01

                                              INSTANTANEOUS             AVERAGES
 CPU TIME [s]                 =                        0.73                 0.73
 ENERGY DRIFT PER ATOM [K]    =         -0.767282622205E-02   0.000000000000E+00
 POTENTIAL ENERGY[hartree]    =          0.241762246288E+01   0.241762246288E+01
 KINETIC ENERGY [hartree]     =          0.244071163479E+01   0.244071163479E+01
 TEMPERATURE [K]              =                     571.535              571.535
 *******************************************************************************

 FOBSH| *** OFF-DIAGONAL GRADIENT CALCULATION
 FOBSH| Put former active state           3 in new active state           3
 RANDOM_NUMBER_HOPPING_PROBA   6.0028801785314174E-002
 FOBSH| ACTIVE STATE =            3

 ENERGY| Total FORCE_EVAL ( MIXED ) energy (a.u.):             2.390387005314979

 FOBSH| CASE1: no hop and no trivial crossing
 ENTER integrator.F
 STEP NUMBER                  =            2
 CPU TIME [s]                 =   0.18209323473274708       0.45789211802184582     

 *******************************************************************************
 ENSEMBLE TYPE                =                                              NVE
 STEP NUMBER                  =                                                2
 TIME [fs]                    =                                         0.200000
 CONSERVED QUANTITY [hartree] =                               0.485831334273E+01

                                              INSTANTANEOUS             AVERAGES
 CPU TIME [s]                 =                        0.18                 0.46
 ENERGY DRIFT PER ATOM [K]    =         -0.149549234029E-01  -0.747746170146E-02
 POTENTIAL ENERGY[hartree]    =          0.239038700531E+01   0.240400473410E+01
 KINETIC ENERGY [hartree]     =          0.246792633741E+01   0.245431898610E+01
 TEMPERATURE [K]              =                     577.908              574.721
 *******************************************************************************

 FOBSH| *** OFF-DIAGONAL GRADIENT CALCULATION
 FOBSH| Put former active state           3 in new active state           3
 RANDOM_NUMBER_HOPPING_PROBA   7.3757525147303299E-002
 FOBSH| ACTIVE STATE =            3

 ENERGY| Total FORCE_EVAL ( MIXED ) energy (a.u.):             2.364855785299476

 FOBSH| CASE1: no hop and no trivial crossing
 ENTER integrator.F
 STEP NUMBER                  =            3
 CPU TIME [s]                 =   0.19844719208776951       0.37141047604382038     

 *******************************************************************************
 ENSEMBLE TYPE                =                                              NVE
 STEP NUMBER                  =                                                3
 TIME [fs]                    =                                         0.300000
 CONSERVED QUANTITY [hartree] =                               0.485829414497E+01

                                              INSTANTANEOUS             AVERAGES
 CPU TIME [s]                 =                        0.20                 0.37
 ENERGY DRIFT PER ATOM [K]    =         -0.216906615706E-01  -0.122151949912E-01
 POTENTIAL ENERGY[hartree]    =          0.236485578530E+01   0.239095508450E+01
 KINETIC ENERGY [hartree]     =          0.249343835967E+01   0.246735877729E+01
 TEMPERATURE [K]              =                     583.882              577.775
 *******************************************************************************

 FOBSH| *** OFF-DIAGONAL GRADIENT CALCULATION
 FOBSH| Put former active state           3 in new active state           3
 RANDOM_NUMBER_HOPPING_PROBA  0.80854958276690769     
 FOBSH| ACTIVE STATE =            3

 ENERGY| Total FORCE_EVAL ( MIXED ) energy (a.u.):             2.341333706452672

 FOBSH| CASE1: no hop and no trivial crossing
 ENTER integrator.F
 STEP NUMBER                  =            4
 CPU TIME [s]                 =   0.22139414399862289       0.33390639303252101     

 *******************************************************************************
 ENSEMBLE TYPE                =                                              NVE
 STEP NUMBER                  =                                                4
 TIME [fs]                    =                                         0.400000
 CONSERVED QUANTITY [hartree] =                               0.485827677974E+01

                                              INSTANTANEOUS             AVERAGES
 CPU TIME [s]                 =                        0.22                 0.33
 ENERGY DRIFT PER ATOM [K]    =         -0.277834408535E-01  -0.161072564568E-01
 POTENTIAL ENERGY[hartree]    =          0.234133370645E+01   0.237854973999E+01
 KINETIC ENERGY [hartree]     =          0.251694307328E+01   0.247975485129E+01
 TEMPERATURE [K]              =                     589.386              580.678
 *******************************************************************************

 FOBSH| *** OFF-DIAGONAL GRADIENT CALCULATION
 FOBSH| Put former active state           3 in new active state           3
 RANDOM_NUMBER_HOPPING_PROBA  0.83291450404706813     
 FOBSH| ACTIVE STATE =            3

 ENERGY| Total FORCE_EVAL ( MIXED ) energy (a.u.):             2.320096267148719

 FOBSH| CASE1: no hop and no trivial crossing
 ENTER integrator.F
 STEP NUMBER                  =            5
 CPU TIME [s]                 =   0.17637564241886139       0.30240024290978912     

 *******************************************************************************
 ENSEMBLE TYPE                =                                              NVE
 STEP NUMBER                  =                                                5
 TIME [fs]                    =                                         0.500000
 CONSERVED QUANTITY [hartree] =                               0.485826147144E+01

                                              INSTANTANEOUS             AVERAGES
 CPU TIME [s]                 =                        0.18                 0.30
 ENERGY DRIFT PER ATOM [K]    =         -0.331545209321E-01  -0.195167093518E-01
 POTENTIAL ENERGY[hartree]    =          0.232009626715E+01   0.236685904542E+01
 KINETIC ENERGY [hartree]     =          0.253816520429E+01   0.249143692189E+01
 TEMPERATURE [K]              =                     594.355              583.413
 *******************************************************************************

 FOBSH| *** OFF-DIAGONAL GRADIENT CALCULATION
 FOBSH| Put former active state           3 in new active state           3
 RANDOM_NUMBER_HOPPING_PROBA  0.18164339214140215     
 FOBSH| ACTIVE STATE =            3

 ENERGY| Total FORCE_EVAL ( MIXED ) energy (a.u.):             2.301385972312482

 FOBSH| CASE1: no hop and no trivial crossing
 ENTER integrator.F
 STEP NUMBER                  =            6
 CPU TIME [s]                 =   0.18243281729519367       0.28240567197402322     

 *******************************************************************************
 ENSEMBLE TYPE                =                                              NVE
 STEP NUMBER                  =                                                6
 TIME [fs]                    =                                         0.600000
 CONSERVED QUANTITY [hartree] =                               0.485824840174E+01

                                              INSTANTANEOUS             AVERAGES
 CPU TIME [s]                 =                        0.18                 0.28
 ENERGY DRIFT PER ATOM [K]    =         -0.377401637330E-01  -0.225539517487E-01
 POTENTIAL ENERGY[hartree]    =          0.230138597231E+01   0.235594686657E+01
 KINETIC ENERGY [hartree]     =          0.255686242943E+01   0.250234117315E+01
 TEMPERATURE [K]              =                     598.734              585.967
 *******************************************************************************

 FOBSH| *** OFF-DIAGONAL GRADIENT CALCULATION
 FOBSH| Put former active state           3 in new active state           3
 RANDOM_NUMBER_HOPPING_PROBA   1.5105624017764302E-002
 FOBSH| ACTIVE STATE =            3

 ENERGY| Total FORCE_EVAL ( MIXED ) energy (a.u.):             2.285409275641136

 FOBSH| CASE1: no hop and no trivial crossing
 ENTER integrator.F
 STEP NUMBER                  =            7
 CPU TIME [s]                 =   0.19263949617743492       0.26958193257451057     

 *******************************************************************************
 ENSEMBLE TYPE                =                                              NVE
 STEP NUMBER                  =                                                7
 TIME [fs]                    =                                         0.700000
 CONSERVED QUANTITY [hartree] =                               0.485823775325E+01

                                              INSTANTANEOUS             AVERAGES
 CPU TIME [s]                 =                        0.19                 0.27
 ENERGY DRIFT PER ATOM [K]    =         -0.414763024930E-01  -0.252571447122E-01
 POTENTIAL ENERGY[hartree]    =          0.228540927564E+01   0.234587006786E+01
 KINETIC ENERGY [hartree]     =          0.257282847761E+01   0.251241078807E+01
 TEMPERATURE [K]              =                     602.472              588.325
 *******************************************************************************

 FOBSH| *** OFF-DIAGONAL GRADIENT CALCULATION
 FOBSH| Put former active state           3 in new active state           3
 RANDOM_NUMBER_HOPPING_PROBA  0.24687190385287536     
 FOBSH| ACTIVE STATE =            3

 ENERGY| Total FORCE_EVAL ( MIXED ) energy (a.u.):             2.272333911542526

 FOBSH| CASE1: no hop and no trivial crossing
 ENTER integrator.F
 STEP NUMBER                  =            8
 CPU TIME [s]                 =   0.19203009456396103       0.25988795282319188     

 *******************************************************************************
 ENSEMBLE TYPE                =                                              NVE
 STEP NUMBER                  =                                                8
 TIME [fs]                    =                                         0.800000
 CONSERVED QUANTITY [hartree] =                               0.485822964012E+01

                                              INSTANTANEOUS             AVERAGES
 CPU TIME [s]                 =                        0.19                 0.26
 ENERGY DRIFT PER ATOM [K]    =         -0.443228817211E-01  -0.276403618383E-01
 POTENTIAL ENERGY[hartree]    =          0.227233391154E+01   0.233667804832E+01
 KINETIC ENERGY [hartree]     =          0.258589572857E+01   0.252159640563E+01
 TEMPERATURE [K]              =                     605.532              590.476
 *******************************************************************************

 FOBSH| *** OFF-DIAGONAL GRADIENT CALCULATION
 FOBSH| Put former active state           3 in new active state           3
 RANDOM_NUMBER_HOPPING_PROBA  0.83365123518729989     
 FOBSH| ACTIVE STATE =            3

 ENERGY| Total FORCE_EVAL ( MIXED ) energy (a.u.):             2.262286865884557

 FOBSH| CASE1: no hop and no trivial crossing
 ENTER integrator.F
 STEP NUMBER                  =            9
 CPU TIME [s]                 =   0.20020932517945766       0.25325699419611031     

 *******************************************************************************
 ENSEMBLE TYPE                =                                              NVE
 STEP NUMBER                  =                                                9
 TIME [fs]                    =                                         0.900000
 CONSERVED QUANTITY [hartree] =                               0.485822417355E+01

                                              INSTANTANEOUS             AVERAGES
 CPU TIME [s]                 =                        0.20                 0.25
 ENERGY DRIFT PER ATOM [K]    =         -0.462408856006E-01  -0.297070867008E-01
 POTENTIAL ENERGY[hartree]    =          0.226228686588E+01   0.232841236139E+01
 KINETIC ENERGY [hartree]     =          0.259593730766E+01   0.252985650586E+01
 TEMPERATURE [K]              =                     607.884              592.410
 *******************************************************************************

 FOBSH| *** OFF-DIAGONAL GRADIENT CALCULATION
 FOBSH| Put former active state           3 in new active state           3
 RANDOM_NUMBER_HOPPING_PROBA  0.47399308453094258     
 FOBSH| ACTIVE STATE =            3

 ENERGY| Total FORCE_EVAL ( MIXED ) energy (a.u.):             2.255352779709085

 FOBSH| CASE1: no hop and no trivial crossing
 ENTER integrator.F
 STEP NUMBER                  =           10
 CPU TIME [s]                 =   0.20322523079812527       0.24825381785631181     

 *******************************************************************************
 ENSEMBLE TYPE                =                                              NVE
 STEP NUMBER                  =                                               10
 TIME [fs]                    =                                         1.000000
 CONSERVED QUANTITY [hartree] =                               0.485822140734E+01

                                              INSTANTANEOUS             AVERAGES
 CPU TIME [s]                 =                        0.20                 0.25
 ENERGY DRIFT PER ATOM [K]    =         -0.472114408496E-01  -0.314575221156E-01
 POTENTIAL ENERGY[hartree]    =          0.225535277971E+01   0.232110640322E+01
 KINETIC ENERGY [hartree]     =          0.260286862763E+01   0.253715771804E+01
 TEMPERATURE [K]              =                     609.507              594.119
 *******************************************************************************

 FOBSH| *** OFF-DIAGONAL GRADIENT CALCULATION
 FOBSH| Put former active state           3 in new active state           3
 RANDOM_NUMBER_HOPPING_PROBA  0.27416560636517739     
 FOBSH| ACTIVE STATE =            3

 ENERGY| Total FORCE_EVAL ( MIXED ) energy (a.u.):             2.251572995375379

 FOBSH| CASE1: no hop and no trivial crossing
 ENTER integrator.F
 STEP NUMBER                  =           11
 CPU TIME [s]                 =   0.17264718934893608       0.24138048799200493     

 *******************************************************************************
 ENSEMBLE TYPE                =                                              NVE
 STEP NUMBER                  =                                               11
 TIME [fs]                    =                                         1.100000
 CONSERVED QUANTITY [hartree] =                               0.485822137923E+01

                                              INSTANTANEOUS             AVERAGES
 CPU TIME [s]                 =                        0.17                 0.24
 ENERGY DRIFT PER ATOM [K]    =         -0.472213024286E-01  -0.328905930532E-01
 POTENTIAL ENERGY[hartree]    =          0.225157299538E+01   0.231478518432E+01
 KINETIC ENERGY [hartree]     =          0.260664838385E+01   0.254347505129E+01
 TEMPERATURE [K]              =                     610.392              595.599
 *******************************************************************************

 FOBSH| *** OFF-DIAGONAL GRADIENT CALCULATION
 FOBSH| Put former active state           3 in new active state           3
 RANDOM_NUMBER_HOPPING_PROBA  0.45405030167718952     
 FOBSH| ACTIVE STATE =            3

 ENERGY| Total FORCE_EVAL ( MIXED ) energy (a.u.):             2.250945093185292

 FOBSH| CASE1: no hop and no trivial crossing
 ENTER integrator.F
 STEP NUMBER                  =           12
 CPU TIME [s]                 =   0.19331487268209457       0.23737502004951239     

 *******************************************************************************
 ENSEMBLE TYPE                =                                              NVE
 STEP NUMBER                  =                                               12
 TIME [fs]                    =                                         1.200000
 CONSERVED QUANTITY [hartree] =                               0.485822405502E+01

                                              INSTANTANEOUS             AVERAGES
 CPU TIME [s]                 =                        0.19                 0.24
 ENERGY DRIFT PER ATOM [K]    =         -0.462824729890E-01  -0.340065830478E-01
 POTENTIAL ENERGY[hartree]    =          0.225094509319E+01   0.230946517673E+01
 KINETIC ENERGY [hartree]     =          0.260727896183E+01   0.254879204384E+01
 TEMPERATURE [K]              =                     610.540              596.844
 *******************************************************************************

 FOBSH| *** OFF-DIAGONAL GRADIENT CALCULATION
 FOBSH| Put former active state           3 in new active state           3
 RANDOM_NUMBER_HOPPING_PROBA  0.54219999671392127     
 FOBSH| ACTIVE STATE =            3

 ENERGY| Total FORCE_EVAL ( MIXED ) energy (a.u.):             2.253423178707615

 FOBSH| CASE1: no hop and no trivial crossing
 ENTER integrator.F
 STEP NUMBER                  =           13
 CPU TIME [s]                 =   0.17907690815627575       0.23289054990387881     

 *******************************************************************************
 ENSEMBLE TYPE                =                                              NVE
 STEP NUMBER                  =                                               13
 TIME [fs]                    =                                         1.300000
 CONSERVED QUANTITY [hartree] =                               0.485822940650E+01

                                              INSTANTANEOUS             AVERAGES
 CPU TIME [s]                 =                        0.18                 0.23
 ENERGY DRIFT PER ATOM [K]    =         -0.444048478510E-01  -0.348064495712E-01
 POTENTIAL ENERGY[hartree]    =          0.225342317871E+01   0.230515425380E+01
 KINETIC ENERGY [hartree]     =          0.260480622779E+01   0.255310082722E+01
 TEMPERATURE [K]              =                     609.961              597.853
 *******************************************************************************

 FOBSH| *** OFF-DIAGONAL GRADIENT CALCULATION
 FOBSH| Put former active state           3 in new active state           3
 RANDOM_NUMBER_HOPPING_PROBA  0.78530724540909458     
 FOBSH| ACTIVE STATE =            3

 ENERGY| Total FORCE_EVAL ( MIXED ) energy (a.u.):             2.258918545523314

 FOBSH| CASE1: no hop and no trivial crossing
 ENTER integrator.F
 STEP NUMBER                  =           14
 CPU TIME [s]                 =   0.20496544428169727       0.23089589950229439     

 *******************************************************************************
 ENSEMBLE TYPE                =                                              NVE
 STEP NUMBER                  =                                               14
 TIME [fs]                    =                                         1.400000
 CONSERVED QUANTITY [hartree] =                               0.485823734542E+01

                                              INSTANTANEOUS             AVERAGES
 CPU TIME [s]                 =                        0.20                 0.23
 ENERGY DRIFT PER ATOM [K]    =         -0.416193939403E-01  -0.352930884547E-01
 POTENTIAL ENERGY[hartree]    =          0.225891854552E+01   0.230185170321E+01
 KINETIC ENERGY [hartree]     =          0.259931879989E+01   0.255640211098E+01
 TEMPERATURE [K]              =                     608.676              598.626
 *******************************************************************************

 FOBSH| *** OFF-DIAGONAL GRADIENT CALCULATION
 FOBSH| Put former active state           3 in new active state           3
 RANDOM_NUMBER_HOPPING_PROBA  0.35091300797413705     
 FOBSH| ACTIVE STATE =            3

 ENERGY| Total FORCE_EVAL ( MIXED ) energy (a.u.):             2.267300983730074

 FOBSH| CASE1: no hop and no trivial crossing
 ENTER integrator.F
 STEP NUMBER                  =           15
 CPU TIME [s]                 =   0.20950231142342091       0.22946966029703617     

 *******************************************************************************
 ENSEMBLE TYPE                =                                              NVE
 STEP NUMBER                  =                                               15
 TIME [fs]                    =                                         1.500000
 CONSERVED QUANTITY [hartree] =                               0.485824776688E+01

                                              INSTANTANEOUS             AVERAGES
 CPU TIME [s]                 =                        0.21                 0.23
 ENERGY DRIFT PER ATOM [K]    =         -0.379629109949E-01  -0.354710766240E-01
 POTENTIAL ENERGY[hartree]    =          0.226730098373E+01   0.229954832191E+01
 KINETIC ENERGY [hartree]     =          0.259094678315E+01   0.255870508913E+01
 TEMPERATURE [K]              =                     606.715              599.165
 *******************************************************************************

 FOBSH| *** OFF-DIAGONAL GRADIENT CALCULATION
 FOBSH| Put former active state           3 in new active state           3
 RANDOM_NUMBER_HOPPING_PROBA  0.51277297843638336     
 FOBSH| ACTIVE STATE =            3

 ENERGY| Total FORCE_EVAL ( MIXED ) energy (a.u.):             2.278400563720113

 FOBSH| CASE1: no hop and no trivial crossing
 ENTER integrator.F
 STEP NUMBER                  =           16
 CPU TIME [s]                 =   0.17063361965119839       0.22579240775667131     

 *******************************************************************************
 ENSEMBLE TYPE                =                                              NVE
 STEP NUMBER                  =                                               16
 TIME [fs]                    =                                         1.600000
 CONSERVED QUANTITY [hartree] =                               0.485826050891E+01

                                              INSTANTANEOUS             AVERAGES
 CPU TIME [s]                 =                        0.17                 0.23
 ENERGY DRIFT PER ATOM [K]    =         -0.334922354473E-01  -0.353473990505E-01
 POTENTIAL ENERGY[hartree]    =          0.227840056372E+01   0.229822658703E+01
 KINETIC ENERGY [hartree]     =          0.257985994519E+01   0.256002726763E+01
 TEMPERATURE [K]              =                     604.119              599.475
 *******************************************************************************

 FOBSH| *** OFF-DIAGONAL GRADIENT CALCULATION
 FOBSH| Put former active state           3 in new active state           3
 RANDOM_NUMBER_HOPPING_PROBA  0.56672912879839055     
 FOBSH| ACTIVE STATE =            3

 ENERGY| Total FORCE_EVAL ( MIXED ) energy (a.u.):             2.292010118091085

 FOBSH| CASE1: no hop and no trivial crossing
 ENTER integrator.F
 STEP NUMBER                  =           17
 CPU TIME [s]                 =   0.18312084488570690       0.22328231582308516     

 *******************************************************************************
 ENSEMBLE TYPE                =                                              NVE
 STEP NUMBER                  =                                               17
 TIME [fs]                    =                                         1.700000
 CONSERVED QUANTITY [hartree] =                               0.485827539858E+01

                                              INSTANTANEOUS             AVERAGES
 CPU TIME [s]                 =                        0.18                 0.22
 ENERGY DRIFT PER ATOM [K]    =         -0.282680347715E-01  -0.349309658576E-01
 POTENTIAL ENERGY[hartree]    =          0.229201011809E+01   0.229786091238E+01
 KINETIC ENERGY [hartree]     =          0.256626528049E+01   0.256039420956E+01
 TEMPERATURE [K]              =                     600.935              599.561
 *******************************************************************************

 FOBSH| *** OFF-DIAGONAL GRADIENT CALCULATION
 FOBSH| Put former active state           3 in new active state           3
 RANDOM_NUMBER_HOPPING_PROBA   4.1701011982236642E-002
 FOBSH| ACTIVE STATE =            3

 ENERGY| Total FORCE_EVAL ( MIXED ) energy (a.u.):             2.307888094048902

 FOBSH| CASE1: no hop and no trivial crossing
 ENTER integrator.F
 STEP NUMBER                  =           18
 CPU TIME [s]                 =   0.18081334419548512       0.22092292851044071     

 *******************************************************************************
 ENSEMBLE TYPE                =                                              NVE
 STEP NUMBER                  =                                               18
 TIME [fs]                    =                                         1.800000
 CONSERVED QUANTITY [hartree] =                               0.485829222921E+01

                                              INSTANTANEOUS             AVERAGES
 CPU TIME [s]                 =                        0.18                 0.22
 ENERGY DRIFT PER ATOM [K]    =         -0.223628257069E-01  -0.342327358492E-01
 POTENTIAL ENERGY[hartree]    =          0.230788809405E+01   0.229841797803E+01
 KINETIC ENERGY [hartree]     =          0.255040413516E+01   0.255983920543E+01
 TEMPERATURE [K]              =                     597.221              599.431
 *******************************************************************************

 FOBSH| *** OFF-DIAGONAL GRADIENT CALCULATION
 FOBSH| Put former active state           3 in new active state           3
 RANDOM_NUMBER_HOPPING_PROBA  0.23087441688912894     
 FOBSH| ACTIVE STATE =            3

 ENERGY| Total FORCE_EVAL ( MIXED ) energy (a.u.):             2.325761842148562

 FOBSH| CASE1: no hop and no trivial crossing
 ENTER integrator.F
 STEP NUMBER                  =           19
 CPU TIME [s]                 =   0.17816592380404472       0.21867255984168302     

 *******************************************************************************
 ENSEMBLE TYPE                =                                              NVE
 STEP NUMBER                  =                                               19
 TIME [fs]                    =                                         1.900000
 CONSERVED QUANTITY [hartree] =                               0.485831077556E+01

                                              INSTANTANEOUS             AVERAGES
 CPU TIME [s]                 =                        0.18                 0.22
 ENERGY DRIFT PER ATOM [K]    =         -0.158556418977E-01  -0.332655203781E-01
 POTENTIAL ENERGY[hartree]    =          0.232576184215E+01   0.229985712877E+01
 KINETIC ENERGY [hartree]     =          0.253254893341E+01   0.255840287532E+01
 TEMPERATURE [K]              =                     593.040              599.094
 *******************************************************************************

 FOBSH| *** OFF-DIAGONAL GRADIENT CALCULATION
 FOBSH| Put former active state           3 in new active state           3
 RANDOM_NUMBER_HOPPING_PROBA  0.10818778711908025     
 FOBSH| ACTIVE STATE =            3

 ENERGY| Total FORCE_EVAL ( MIXED ) energy (a.u.):             2.345331291399673

 FOBSH| CASE1: no hop and no trivial crossing
 ENTER integrator.F
 STEP NUMBER                  =           20
 CPU TIME [s]                 =   0.13698455132544041       0.21458815941587092     

 *******************************************************************************
 ENSEMBLE TYPE                =                                              NVE
 STEP NUMBER                  =                                               20
 TIME [fs]                    =                                         2.000000
 CONSERVED QUANTITY [hartree] =                               0.485833076913E+01

                                              INSTANTANEOUS             AVERAGES
 CPU TIME [s]                 =                        0.14                 0.21
 ENERGY DRIFT PER ATOM [K]    =         -0.884068142475E-02  -0.320442784304E-01
 POTENTIAL ENERGY[hartree]    =          0.234533129140E+01   0.230213083691E+01
 KINETIC ENERGY [hartree]     =          0.251299947773E+01   0.255613270544E+01
 TEMPERATURE [K]              =                     588.462              598.563
 *******************************************************************************

 FOBSH| *** OFF-DIAGONAL GRADIENT CALCULATION
 FOBSH| Put former active state           3 in new active state           3
 RANDOM_NUMBER_HOPPING_PROBA  0.22324767369672568     
 FOBSH| ACTIVE STATE =            3

 ENERGY| Total FORCE_EVAL ( MIXED ) energy (a.u.):             2.366273103463373

 FOBSH| CASE1: no hop and no trivial crossing
 ENTER integrator.F
 STEP NUMBER                  =           21
 CPU TIME [s]                 =   0.14978126809000969       0.21150211697178226     

 *******************************************************************************
 ENSEMBLE TYPE                =                                              NVE
 STEP NUMBER                  =                                               21
 TIME [fs]                    =                                         2.100000
 CONSERVED QUANTITY [hartree] =                               0.485835193955E+01

                                              INSTANTANEOUS             AVERAGES
 CPU TIME [s]                 =                        0.15                 0.21
 ENERGY DRIFT PER ATOM [K]    =         -0.141281511796E-02  -0.305856373203E-01
 POTENTIAL ENERGY[hartree]    =          0.236627310346E+01   0.230518523055E+01
 KINETIC ENERGY [hartree]     =          0.249207883608E+01   0.255308252119E+01
 TEMPERATURE [K]              =                     583.563              597.849
 *******************************************************************************

 FOBSH| *** OFF-DIAGONAL GRADIENT CALCULATION
 FOBSH| Put former active state           3 in new active state           3
 RANDOM_NUMBER_HOPPING_PROBA  0.53970963304387498     
 FOBSH| ACTIVE STATE =            3

 ENERGY| Total FORCE_EVAL ( MIXED ) energy (a.u.):             2.388245079896584

 FOBSH| CASE1: no hop and no trivial crossing
 ENTER integrator.F
 STEP NUMBER                  =           22
 CPU TIME [s]                 =   0.11646967194974422       0.20718246037987145     

 *******************************************************************************
 ENSEMBLE TYPE                =                                              NVE
 STEP NUMBER                  =                                               22
 TIME [fs]                    =                                         2.200000
 CONSERVED QUANTITY [hartree] =                               0.485837399704E+01

                                              INSTANTANEOUS             AVERAGES
 CPU TIME [s]                 =                        0.12                 0.21
 ENERGY DRIFT PER ATOM [K]    =          0.632629184699E-02  -0.289078223582E-01
 POTENTIAL ENERGY[hartree]    =          0.238824507990E+01   0.230896067825E+01
 KINETIC ENERGY [hartree]     =          0.247012891714E+01   0.254931190282E+01
 TEMPERATURE [K]              =                     578.423              596.966
 *******************************************************************************

 FOBSH| *** OFF-DIAGONAL GRADIENT CALCULATION
 FOBSH| Put former active state           3 in new active state           3
 RANDOM_NUMBER_HOPPING_PROBA   3.7455510299360881E-002
 FOBSH| ACTIVE STATE =            3

 ENERGY| Total FORCE_EVAL ( MIXED ) energy (a.u.):             2.410890801936019

 FOBSH| CASE1: no hop and no trivial crossing
 ENTER integrator.F
 STEP NUMBER                  =           23
 CPU TIME [s]                 =   0.17356963828206062       0.20572103333214053     

 *******************************************************************************
 ENSEMBLE TYPE                =                                              NVE
 STEP NUMBER                  =                                               23
 TIME [fs]                    =                                         2.300000
 CONSERVED QUANTITY [hartree] =                               0.485839665680E+01

                                              INSTANTANEOUS             AVERAGES
 CPU TIME [s]                 =                        0.17                 0.21
 ENERGY DRIFT PER ATOM [K]    =          0.142767131104E-01  -0.270302338595E-01
 POTENTIAL ENERGY[hartree]    =          0.241089080194E+01   0.231339242276E+01
 KINETIC ENERGY [hartree]     =          0.244750585487E+01   0.254488555291E+01
 TEMPERATURE [K]              =                     573.126              595.929
 *******************************************************************************

 FOBSH| *** OFF-DIAGONAL GRADIENT CALCULATION
 FOBSH| Put former active state           3 in new active state           3
 RANDOM_NUMBER_HOPPING_PROBA  0.50599131459514457     
 FOBSH| ACTIVE STATE =            3

 ENERGY| Total FORCE_EVAL ( MIXED ) energy (a.u.):             2.433844377503465

 FOBSH| CASE1: no hop and no trivial crossing
 ENTER integrator.F
 STEP NUMBER                  =           24
 CPU TIME [s]                 =   0.15990463644266129       0.20381201679507890     

 *******************************************************************************
 ENSEMBLE TYPE                =                                              NVE
 STEP NUMBER                  =                                               24
 TIME [fs]                    =                                         2.400000
 CONSERVED QUANTITY [hartree] =                               0.485841958871E+01

                                              INSTANTANEOUS             AVERAGES
 CPU TIME [s]                 =                        0.16                 0.20
 ENERGY DRIFT PER ATOM [K]    =          0.223226177744E-01  -0.249738650415E-01
 POTENTIAL ENERGY[hartree]    =          0.243384437750E+01   0.231841125420E+01
 KINETIC ENERGY [hartree]     =          0.242457521120E+01   0.253987262201E+01
 TEMPERATURE [K]              =                     567.756              594.755
 *******************************************************************************

 FOBSH| *** OFF-DIAGONAL GRADIENT CALCULATION
 FOBSH| Put former active state           3 in new active state           3
 RANDOM_NUMBER_HOPPING_PROBA  0.97666355388844839     
 FOBSH| ATTEMPTED_HOP
 FOBSH| ACTIVE STATE =            3

 ENERGY| Total FORCE_EVAL ( MIXED ) energy (a.u.):             2.456735465968939

 FOBSH| Active state before the attempt to hop:           3
 FOBSH| Active state after the attempt to hop:           3
 FOBSH| CASE4: rejected hop and good overlap
 ENTER integrator.F
 STEP NUMBER                  =           25
 CPU TIME [s]                 =   0.15384593419730663       0.20181337349116801     

 *******************************************************************************
 ENSEMBLE TYPE                =                                              NVE
 STEP NUMBER                  =                                               25
 TIME [fs]                    =                                         2.500000
 CONSERVED QUANTITY [hartree] =                               0.485844247257E+01

                                              INSTANTANEOUS             AVERAGES
 CPU TIME [s]                 =                        0.15                 0.20
 ENERGY DRIFT PER ATOM [K]    =          0.303516651303E-01  -0.227608438346E-01
 POTENTIAL ENERGY[hartree]    =          0.245673546597E+01   0.232394422268E+01
 KINETIC ENERGY [hartree]     =          0.240170700660E+01   0.253434599739E+01
 TEMPERATURE [K]              =                     562.401              593.461
 *******************************************************************************

 FOBSH| *** OFF-DIAGONAL GRADIENT CALCULATION
 FOBSH| Put former active state           3 in new active state           3
 RANDOM_NUMBER_HOPPING_PROBA  0.12840580700626780     
 FOBSH| ACTIVE STATE =            3

 ENERGY| Total FORCE_EVAL ( MIXED ) energy (a.u.):             2.479243632059394

 FOBSH| CASE1: no hop and no trivial crossing
 ENTER integrator.F
 STEP NUMBER                  =           26
 CPU TIME [s]                 =   0.17425120249390602       0.20075328999127334     

 *******************************************************************************
 ENSEMBLE TYPE                =                                              NVE
 STEP NUMBER                  =                                               26
 TIME [fs]                    =                                         2.600000
 CONSERVED QUANTITY [hartree] =                               0.485846502253E+01

                                              INSTANTANEOUS             AVERAGES
 CPU TIME [s]                 =                        0.17                 0.20
 ENERGY DRIFT PER ATOM [K]    =          0.382635628342E-01  -0.204137512704E-01
 POTENTIAL ENERGY[hartree]    =          0.247924363206E+01   0.232991727688E+01
 KINETIC ENERGY [hartree]     =          0.237922139047E+01   0.252837966635E+01
 TEMPERATURE [K]              =                     557.136              592.064
 *******************************************************************************

 FOBSH| *** OFF-DIAGONAL GRADIENT CALCULATION
 FOBSH| Put former active state           3 in new active state           3
 RANDOM_NUMBER_HOPPING_PROBA  0.80710812468977888     
 FOBSH| ACTIVE STATE =            3

 ENERGY| Total FORCE_EVAL ( MIXED ) energy (a.u.):             2.500958847059820

 FOBSH| CASE1: no hop and no trivial crossing
 ENTER integrator.F
 STEP NUMBER                  =           27
 CPU TIME [s]                 =   0.19778377190232277       0.20064330783983070     

 *******************************************************************************
 ENSEMBLE TYPE                =                                              NVE
 STEP NUMBER                  =                                               27
 TIME [fs]                    =                                         2.700000
 CONSERVED QUANTITY [hartree] =                               0.485848692121E+01

                                              INSTANTANEOUS             AVERAGES
 CPU TIME [s]                 =                        0.20                 0.20
 ENERGY DRIFT PER ATOM [K]    =          0.459469490147E-01  -0.179559475561E-01
 POTENTIAL ENERGY[hartree]    =          0.250095884706E+01   0.233625214985E+01
 KINETIC ENERGY [hartree]     =          0.235752807415E+01   0.252205182961E+01
 TEMPERATURE [K]              =                     552.056              590.582
 *******************************************************************************

 FOBSH| *** OFF-DIAGONAL GRADIENT CALCULATION
 FOBSH| Put former active state           3 in new active state           3
 RANDOM_NUMBER_HOPPING_PROBA  0.36348714134779886     
 FOBSH| ACTIVE STATE =            3

 ENERGY| Total FORCE_EVAL ( MIXED ) energy (a.u.):             2.521527206071591

 FOBSH| CASE1: no hop and no trivial crossing
 ENTER integrator.F
 STEP NUMBER                  =           28
 CPU TIME [s]                 =   0.21124548837542534       0.20102195714467333     

 *******************************************************************************
 ENSEMBLE TYPE                =                                              NVE
 STEP NUMBER                  =                                               28
 TIME [fs]                    =                                         2.800000
 CONSERVED QUANTITY [hartree] =                               0.485850786796E+01

                                              INSTANTANEOUS             AVERAGES
 CPU TIME [s]                 =                        0.21                 0.20
 ENERGY DRIFT PER ATOM [K]    =          0.532963387718E-01  -0.154112230444E-01
 POTENTIAL ENERGY[hartree]    =          0.252152720607E+01   0.234286911615E+01
 KINETIC ENERGY [hartree]     =          0.233698066188E+01   0.251544214505E+01
 TEMPERATURE [K]              =                     547.245              589.034
 *******************************************************************************

 FOBSH| *** OFF-DIAGONAL GRADIENT CALCULATION
 FOBSH| Put former active state           3 in new active state           3
 RANDOM_NUMBER_HOPPING_PROBA  0.85522378722358217     
 FOBSH| ACTIVE STATE =            3

 ENERGY| Total FORCE_EVAL ( MIXED ) energy (a.u.):             2.540610055360538

 FOBSH| CASE1: no hop and no trivial crossing
 ENTER integrator.F
 STEP NUMBER                  =           29
 CPU TIME [s]                 =   0.20667907968163490       0.20121703033560304     

 *******************************************************************************
 ENSEMBLE TYPE                =                                              NVE
 STEP NUMBER                  =                                               29
 TIME [fs]                    =                                         2.900000
 CONSERVED QUANTITY [hartree] =                               0.485852757663E+01

                                              INSTANTANEOUS             AVERAGES
 CPU TIME [s]                 =                        0.21                 0.20
 ENERGY DRIFT PER ATOM [K]    =          0.602113392642E-01  -0.128035484821E-01
 POTENTIAL ENERGY[hartree]    =          0.254061005536E+01   0.234968776922E+01
 KINETIC ENERGY [hartree]     =          0.231791752127E+01   0.250863095112E+01
 TEMPERATURE [K]              =                     542.781              587.439
 *******************************************************************************

 FOBSH| *** OFF-DIAGONAL GRADIENT CALCULATION
 FOBSH| Put former active state           3 in new active state           3
 RANDOM_NUMBER_HOPPING_PROBA  0.67034729650063396     
 FOBSH| ACTIVE STATE =            3

 ENERGY| Total FORCE_EVAL ( MIXED ) energy (a.u.):             2.557888631170599

 FOBSH| CASE1: no hop and no trivial crossing
 ENTER integrator.F
 STEP NUMBER                  =           30
 CPU TIME [s]                 =   0.20644219964742661       0.20139120264599714     

 *******************************************************************************
 ENSEMBLE TYPE                =                                              NVE
 STEP NUMBER                  =                                               30
 TIME [fs]                    =                                         3.000000
 CONSERVED QUANTITY [hartree] =                               0.485854580974E+01

                                              INSTANTANEOUS             AVERAGES
 CPU TIME [s]                 =                        0.21                 0.20
 ENERGY DRIFT PER ATOM [K]    =          0.666086192031E-01  -0.101564762259E-01
 POTENTIAL ENERGY[hartree]    =          0.255788863117E+01   0.235662779795E+01
 KINETIC ENERGY [hartree]     =          0.230065717857E+01   0.250169849204E+01
 TEMPERATURE [K]              =                     538.739              585.816
 *******************************************************************************

 FOBSH| *** OFF-DIAGONAL GRADIENT CALCULATION
 FOBSH| Put former active state           3 in new active state           3
 RANDOM_NUMBER_HOPPING_PROBA  0.95194410928626894     
 FOBSH| ACTIVE STATE =            3

 ENERGY| Total FORCE_EVAL ( MIXED ) energy (a.u.):             2.573068236664712

 FOBSH| CASE1: no hop and no trivial crossing
 ENTER integrator.F
 STEP NUMBER                  =           31
 CPU TIME [s]                 =   0.24814293347299099       0.20289932299525501     

 *******************************************************************************
 ENSEMBLE TYPE                =                                              NVE
 STEP NUMBER                  =                                               31
 TIME [fs]                    =                                         3.100000
 CONSERVED QUANTITY [hartree] =                               0.485856224100E+01

                                              INSTANTANEOUS             AVERAGES
 CPU TIME [s]                 =                        0.25                 0.20
 ENERGY DRIFT PER ATOM [K]    =          0.723737052581E-01  -0.749421230704E-02
 POTENTIAL ENERGY[hartree]    =          0.257306823666E+01   0.236360974759E+01
 KINETIC ENERGY [hartree]     =          0.228549400434E+01   0.249472415372E+01
 TEMPERATURE [K]              =                     535.188              584.183
 *******************************************************************************

 FOBSH| *** OFF-DIAGONAL GRADIENT CALCULATION
 FOBSH| Put former active state           3 in new active state           3
 RANDOM_NUMBER_HOPPING_PROBA  0.40303366510919353     
 FOBSH| ACTIVE STATE =            3

 ENERGY| Total FORCE_EVAL ( MIXED ) energy (a.u.):             2.585882546751264

 FOBSH| CASE1: no hop and no trivial crossing
 ENTER integrator.F
 STEP NUMBER                  =           32
 CPU TIME [s]                 =   0.25923608429729939       0.20465984678594390     

 *******************************************************************************
 ENSEMBLE TYPE                =                                              NVE
 STEP NUMBER                  =                                               32
 TIME [fs]                    =                                         3.200000
 CONSERVED QUANTITY [hartree] =                               0.485857668791E+01

                                              INSTANTANEOUS             AVERAGES
 CPU TIME [s]                 =                        0.26                 0.20
 ENERGY DRIFT PER ATOM [K]    =          0.774425558075E-01  -0.483993830347E-02
 POTENTIAL ENERGY[hartree]    =          0.258588254675E+01   0.237055577256E+01
 KINETIC ENERGY [hartree]     =          0.227269414115E+01   0.248778571583E+01
 TEMPERATURE [K]              =                     532.191              582.558
 *******************************************************************************

 FOBSH| *** OFF-DIAGONAL GRADIENT CALCULATION
 FOBSH| Put former active state           3 in new active state           3
 RANDOM_NUMBER_HOPPING_PROBA   6.3990691283266954E-002
 FOBSH| ACTIVE STATE =            3

 ENERGY| Total FORCE_EVAL ( MIXED ) energy (a.u.):             2.596097083642882

 FOBSH| CASE1: no hop and no trivial crossing
 ENTER integrator.F
 STEP NUMBER                  =           33
 CPU TIME [s]                 =   0.16350334696471691       0.20341268012469460     

 *******************************************************************************
 ENSEMBLE TYPE                =                                              NVE
 STEP NUMBER                  =                                               33
 TIME [fs]                    =                                         3.300000
 CONSERVED QUANTITY [hartree] =                               0.485858894682E+01

                                              INSTANTANEOUS             AVERAGES
 CPU TIME [s]                 =                        0.16                 0.20
 ENERGY DRIFT PER ATOM [K]    =          0.817437263717E-01  -0.221619088907E-02
 POTENTIAL ENERGY[hartree]    =          0.259609708364E+01   0.237739035775E+01
 KINETIC ENERGY [hartree]     =          0.226249186317E+01   0.248095862939E+01
 TEMPERATURE [K]              =                     529.802              580.959
 *******************************************************************************

 FOBSH| *** OFF-DIAGONAL GRADIENT CALCULATION
 FOBSH| Put former active state           3 in new active state           3
 RANDOM_NUMBER_HOPPING_PROBA  0.44240387110505380     
 FOBSH| ACTIVE STATE =            3

 ENERGY| Total FORCE_EVAL ( MIXED ) energy (a.u.):             2.603512466796418

 FOBSH| CASE1: no hop and no trivial crossing
 ENTER integrator.F
 STEP NUMBER                  =           34
 CPU TIME [s]                 =   0.20098891854286194       0.20334139301934656     

 *******************************************************************************
 ENSEMBLE TYPE                =                                              NVE
 STEP NUMBER                  =                                               34
 TIME [fs]                    =                                         3.400000
 CONSERVED QUANTITY [hartree] =                               0.485859883757E+01

                                              INSTANTANEOUS             AVERAGES
 CPU TIME [s]                 =                        0.20                 0.20
 ENERGY DRIFT PER ATOM [K]    =          0.852140044584E-01   0.355285444684E-03
 POTENTIAL ENERGY[hartree]    =          0.260351246680E+01   0.238404100801E+01
 KINETIC ENERGY [hartree]     =          0.225508637078E+01   0.247431532766E+01
 TEMPERATURE [K]              =                     528.068              579.404
 *******************************************************************************

 FOBSH| *** OFF-DIAGONAL GRADIENT CALCULATION
 FOBSH| Put former active state           3 in new active state           3
 RANDOM_NUMBER_HOPPING_PROBA  0.37053832739404691     
 FOBSH| ACTIVE STATE =            3

 ENERGY| Total FORCE_EVAL ( MIXED ) energy (a.u.):             2.607967206897646

 FOBSH| CASE1: no hop and no trivial crossing
 ENTER integrator.F
 STEP NUMBER                  =           35
 CPU TIME [s]                 =   0.20881139487028122       0.20349767878651612     

 *******************************************************************************
 ENSEMBLE TYPE                =                                              NVE
 STEP NUMBER                  =                                               35
 TIME [fs]                    =                                         3.500000
 CONSERVED QUANTITY [hartree] =                               0.485860622248E+01

                                              INSTANTANEOUS             AVERAGES
 CPU TIME [s]                 =                        0.21                 0.20
 ENERGY DRIFT PER ATOM [K]    =          0.878050778514E-01   0.285385094202E-02
 POTENTIAL ENERGY[hartree]    =          0.260796720690E+01   0.239043889941E+01
 KINETIC ENERGY [hartree]     =          0.225063901558E+01   0.246792457589E+01
 TEMPERATURE [K]              =                     527.026              577.907
 *******************************************************************************

 FOBSH| *** OFF-DIAGONAL GRADIENT CALCULATION
 FOBSH| New map:            1           2           3           0           0           6           7           8
 FOBSH! New map again:           1           2           3           0           0           6           7           8
 FOBSH| Put former active state           3 in new active state           3
 RANDOM_NUMBER_HOPPING_PROBA  0.79109232280105435     
 FOBSH| ACTIVE STATE =            3

 ENERGY| Total FORCE_EVAL ( MIXED ) energy (a.u.):             2.609339964738516

 FOBSH| CASE1: no hop and no trivial crossing
 ENTER integrator.F
 STEP NUMBER                  =           36
 CPU TIME [s]                 =   0.26811632700264454       0.20529264123696411     

 *******************************************************************************
 ENSEMBLE TYPE                =                                              NVE
 STEP NUMBER                  =                                               36
 TIME [fs]                    =                                         3.600000
 CONSERVED QUANTITY [hartree] =                               0.485861099243E+01

                                              INSTANTANEOUS             AVERAGES
 CPU TIME [s]                 =                        0.27                 0.21
 ENERGY DRIFT PER ATOM [K]    =          0.894786674818E-01   0.526009584590E-02
 POTENTIAL ENERGY[hartree]    =          0.260933996474E+01   0.239651948456E+01
 KINETIC ENERGY [hartree]     =          0.224927102770E+01   0.246185086622E+01
 TEMPERATURE [K]              =                     526.706              576.485
 *******************************************************************************

 FOBSH| *** OFF-DIAGONAL GRADIENT CALCULATION
 FOBSH| New map:            1           2           3           0           0           6           7           8
 FOBSH! New map again:           1           2           3           0           0           6           7           8
 FOBSH| Put former active state           3 in new active state           3
 RANDOM_NUMBER_HOPPING_PROBA   9.1827710182444136E-002
 FOBSH| ACTIVE STATE =            3

 ENERGY| Total FORCE_EVAL ( MIXED ) energy (a.u.):             2.607551276830550

 FOBSH| CASE1: no hop and no trivial crossing
 ENTER integrator.F
 STEP NUMBER                  =           37
 CPU TIME [s]                 =   0.22700579464435577       0.20587948322094768     

 *******************************************************************************
 ENSEMBLE TYPE                =                                              NVE
 STEP NUMBER                  =                                               37
 TIME [fs]                    =                                         3.700000
 CONSERVED QUANTITY [hartree] =                               0.485861306364E+01

                                              INSTANTANEOUS             AVERAGES
 CPU TIME [s]                 =                        0.23                 0.21
 ENERGY DRIFT PER ATOM [K]    =          0.902053702846E-01   0.755591407398E-02
 POTENTIAL ENERGY[hartree]    =          0.260755127683E+01   0.240222304651E+01
 KINETIC ENERGY [hartree]     =          0.225106178680E+01   0.245615386407E+01
 TEMPERATURE [K]              =                     527.125              575.151
 *******************************************************************************

 FOBSH| *** OFF-DIAGONAL GRADIENT CALCULATION
 FOBSH| Put former active state           3 in new active state           3
 RANDOM_NUMBER_HOPPING_PROBA  0.93278955296152910     
 FOBSH| ACTIVE STATE =            3

 ENERGY| Total FORCE_EVAL ( MIXED ) energy (a.u.):             2.602564780784043

 FOBSH| CASE1: no hop and no trivial crossing
 ENTER integrator.F
 STEP NUMBER                  =           38
 CPU TIME [s]                 =   0.23080240003764629       0.20653534945296606     

 *******************************************************************************
 ENSEMBLE TYPE                =                                              NVE
 STEP NUMBER                  =                                               38
 TIME [fs]                    =                                         3.800000
 CONSERVED QUANTITY [hartree] =                               0.485861242504E+01

                                              INSTANTANEOUS             AVERAGES
 CPU TIME [s]                 =                        0.23                 0.21
 ENERGY DRIFT PER ATOM [K]    =          0.899813113174E-01   0.972500347512E-02
 POTENTIAL ENERGY[hartree]    =          0.260256478078E+01   0.240749519741E+01
 KINETIC ENERGY [hartree]     =          0.225604764425E+01   0.245088791092E+01
 TEMPERATURE [K]              =                     528.293              573.918
 *******************************************************************************

 FOBSH| *** OFF-DIAGONAL GRADIENT CALCULATION
 FOBSH| Put former active state           3 in new active state           3
 RANDOM_NUMBER_HOPPING_PROBA  0.66895875268229765     
 FOBSH| ACTIVE STATE =            3

 ENERGY| Total FORCE_EVAL ( MIXED ) energy (a.u.):             2.594387786291324

 FOBSH| CASE1: no hop and no trivial crossing
 ENTER integrator.F
 STEP NUMBER                  =           39
 CPU TIME [s]                 =   0.19975609891116619       0.20636152251599682     

 *******************************************************************************
 ENSEMBLE TYPE                =                                              NVE
 STEP NUMBER                  =                                               39
 TIME [fs]                    =                                         3.900000
 CONSERVED QUANTITY [hartree] =                               0.485860905211E+01

                                              INSTANTANEOUS             AVERAGES
 CPU TIME [s]                 =                        0.20                 0.21
 ENERGY DRIFT PER ATOM [K]    =          0.887978837187E-01   0.117525132250E-01
 POTENTIAL ENERGY[hartree]    =          0.259438778629E+01   0.241228731508E+01
 KINETIC ENERGY [hartree]     =          0.226422126582E+01   0.244610158668E+01
 TEMPERATURE [K]              =                     530.207              572.797
 *******************************************************************************

 FOBSH| *** OFF-DIAGONAL GRADIENT CALCULATION
 FOBSH| Put former active state           3 in new active state           3
 RANDOM_NUMBER_HOPPING_PROBA   7.0495669884397497E-002
 FOBSH| ACTIVE STATE =            3

 ENERGY| Total FORCE_EVAL ( MIXED ) energy (a.u.):             2.583071397356234

 FOBSH| CASE1: no hop and no trivial crossing
 ENTER integrator.F
 STEP NUMBER                  =           40
 CPU TIME [s]                 =   0.19196367077529430       0.20600157622247928     

 *******************************************************************************
 ENSEMBLE TYPE                =                                              NVE
 STEP NUMBER                  =                                               40
 TIME [fs]                    =                                         4.000000
 CONSERVED QUANTITY [hartree] =                               0.485860299045E+01

                                              INSTANTANEOUS             AVERAGES
 CPU TIME [s]                 =                        0.19                 0.21
 ENERGY DRIFT PER ATOM [K]    =          0.866710864564E-01   0.136254775557E-01
 POTENTIAL ENERGY[hartree]    =          0.258307139736E+01   0.241655691713E+01
 KINETIC ENERGY [hartree]     =          0.227553159310E+01   0.244183733685E+01
 TEMPERATURE [K]              =                     532.855              571.799
 *******************************************************************************

 FOBSH| *** OFF-DIAGONAL GRADIENT CALCULATION
 FOBSH| Put former active state           3 in new active state           3
 RANDOM_NUMBER_HOPPING_PROBA  0.44837893062802447     
 FOBSH| ACTIVE STATE =            3

 ENERGY| Total FORCE_EVAL ( MIXED ) energy (a.u.):             2.568709952323037

 FOBSH| CASE1: no hop and no trivial crossing
 ENTER integrator.F
 STEP NUMBER                  =           41
 CPU TIME [s]                 =   0.19932947121560574       0.20583884195401894     

 *******************************************************************************
 ENSEMBLE TYPE                =                                              NVE
 STEP NUMBER                  =                                               41
 TIME [fs]                    =                                         4.100000
 CONSERVED QUANTITY [hartree] =                               0.485859430154E+01

                                              INSTANTANEOUS             AVERAGES
 CPU TIME [s]                 =                        0.20                 0.21
 ENERGY DRIFT PER ATOM [K]    =          0.836224866830E-01   0.153327216808E-01
 POTENTIAL ENERGY[hartree]    =          0.256870995232E+01   0.242026796677E+01
 KINETIC ENERGY [hartree]     =          0.228988434921E+01   0.243813116641E+01
 TEMPERATURE [K]              =                     536.216              570.931
 *******************************************************************************

 FOBSH| *** OFF-DIAGONAL GRADIENT CALCULATION
 FOBSH| Put former active state           3 in new active state           3
 RANDOM_NUMBER_HOPPING_PROBA  0.53199482212190596     
 FOBSH| ACTIVE STATE =            3

 ENERGY| Total FORCE_EVAL ( MIXED ) energy (a.u.):             2.551439986586283

 FOBSH| CASE1: no hop and no trivial crossing
 ENTER integrator.F
 STEP NUMBER                  =           42
 CPU TIME [s]                 =   0.17992454580962658       0.20522183490296195     

 *******************************************************************************
 ENSEMBLE TYPE                =                                              NVE
 STEP NUMBER                  =                                               42
 TIME [fs]                    =                                         4.200000
 CONSERVED QUANTITY [hartree] =                               0.485858308545E+01

                                              INSTANTANEOUS             AVERAGES
 CPU TIME [s]                 =                        0.18                 0.21
 ENERGY DRIFT PER ATOM [K]    =          0.796872039603E-01   0.168649712589E-01
 POTENTIAL ENERGY[hartree]    =          0.255143998659E+01   0.242339111010E+01
 KINETIC ENERGY [hartree]     =          0.230714309887E+01   0.243501240290E+01
 TEMPERATURE [K]              =                     540.258              570.200
 *******************************************************************************

 FOBSH| *** OFF-DIAGONAL GRADIENT CALCULATION
 FOBSH| Put former active state           3 in new active state           3
 RANDOM_NUMBER_HOPPING_PROBA  0.57730720845980099     
 FOBSH| ACTIVE STATE =            3

 ENERGY| Total FORCE_EVAL ( MIXED ) energy (a.u.):             2.531438580933397

 FOBSH| CASE1: no hop and no trivial crossing
 ENTER integrator.F
 STEP NUMBER                  =           43
 CPU TIME [s]                 =   0.16073015332221985       0.20418714463364238     

 *******************************************************************************
 ENSEMBLE TYPE                =                                              NVE
 STEP NUMBER                  =                                               43
 TIME [fs]                    =                                         4.300000
 CONSERVED QUANTITY [hartree] =                               0.485856948229E+01

                                              INSTANTANEOUS             AVERAGES
 CPU TIME [s]                 =                        0.16                 0.20
 ENERGY DRIFT PER ATOM [K]    =          0.749143866352E-01   0.182149576630E-01
 POTENTIAL ENERGY[hartree]    =          0.253143858093E+01   0.242590384198E+01
 KINETIC ENERGY [hartree]     =          0.232713090135E+01   0.243250353077E+01
 TEMPERATURE [K]              =                     544.938              569.613
 *******************************************************************************

 FOBSH| *** OFF-DIAGONAL GRADIENT CALCULATION
 FOBSH| Put former active state           3 in new active state           3
 RANDOM_NUMBER_HOPPING_PROBA   1.6928433561957019E-002
 FOBSH| ACTIVE STATE =            3

 ENERGY| Total FORCE_EVAL ( MIXED ) energy (a.u.):             2.508921131462369

 FOBSH| CASE1: no hop and no trivial crossing
 ENTER integrator.F
 STEP NUMBER                  =           44
 CPU TIME [s]                 =   0.16164253093302250       0.20322022159499192     

 *******************************************************************************
 ENSEMBLE TYPE                =                                              NVE
 STEP NUMBER                  =                                               44
 TIME [fs]                    =                                         4.400000
 CONSERVED QUANTITY [hartree] =                               0.485855365765E+01

                                              INSTANTANEOUS             AVERAGES
 CPU TIME [s]                 =                        0.16                 0.20
 ENERGY DRIFT PER ATOM [K]    =          0.693621449490E-01   0.193773937377E-01
 POTENTIAL ENERGY[hartree]    =          0.250892113146E+01   0.242779059856E+01
 KINETIC ENERGY [hartree]     =          0.234963252619E+01   0.243062009885E+01
 TEMPERATURE [K]              =                     550.207              569.172
 *******************************************************************************

 FOBSH| *** OFF-DIAGONAL GRADIENT CALCULATION
 FOBSH| Put former active state           3 in new active state           3
 RANDOM_NUMBER_HOPPING_PROBA  0.13144936141126493     
 FOBSH| ACTIVE STATE =            3

 ENERGY| Total FORCE_EVAL ( MIXED ) energy (a.u.):             2.484138673604514

 FOBSH| CASE1: no hop and no trivial crossing
 ENTER integrator.F
 STEP NUMBER                  =           45
 CPU TIME [s]                 =   0.17528821341693401       0.20259951030214621     

 *******************************************************************************
 ENSEMBLE TYPE                =                                              NVE
 STEP NUMBER                  =                                               45
 TIME [fs]                    =                                         4.500000
 CONSERVED QUANTITY [hartree] =                               0.485853580776E+01

                                              INSTANTANEOUS             AVERAGES
 CPU TIME [s]                 =                        0.18                 0.20
 ENERGY DRIFT PER ATOM [K]    =          0.630993167646E-01   0.203489920271E-01
 POTENTIAL ENERGY[hartree]    =          0.248413867360E+01   0.242904277801E+01
 KINETIC ENERGY [hartree]     =          0.237439713415E+01   0.242937069964E+01
 TEMPERATURE [K]              =                     556.006              568.879
 *******************************************************************************

 FOBSH| *** OFF-DIAGONAL GRADIENT CALCULATION
 FOBSH| Put former active state           3 in new active state           3
 RANDOM_NUMBER_HOPPING_PROBA   6.6529961963703879E-002
 FOBSH| ACTIVE STATE =            3

 ENERGY| Total FORCE_EVAL ( MIXED ) energy (a.u.):             2.457374799630573

 FOBSH| CASE1: no hop and no trivial crossing
 ENTER integrator.F
 STEP NUMBER                  =           46
 CPU TIME [s]                 =   0.24418892152607441       0.20350362793744897     

 *******************************************************************************
 ENSEMBLE TYPE                =                                              NVE
 STEP NUMBER                  =                                               46
 TIME [fs]                    =                                         4.600000
 CONSERVED QUANTITY [hartree] =                               0.485851617067E+01

                                              INSTANTANEOUS             AVERAGES
 CPU TIME [s]                 =                        0.24                 0.20
 ENERGY DRIFT PER ATOM [K]    =          0.562094337132E-01   0.211285668464E-01
 POTENTIAL ENERGY[hartree]    =          0.245737479963E+01   0.242965869152E+01
 KINETIC ENERGY [hartree]     =          0.240114137104E+01   0.242875701858E+01
 TEMPERATURE [K]              =                     562.269              568.736
 *******************************************************************************

 FOBSH| *** OFF-DIAGONAL GRADIENT CALCULATION
 FOBSH| Put former active state           3 in new active state           3
 RANDOM_NUMBER_HOPPING_PROBA  0.13624522447097273     
 FOBSH| ACTIVE STATE =            3

 ENERGY| Total FORCE_EVAL ( MIXED ) energy (a.u.):             2.428941993246758

 FOBSH| CASE1: no hop and no trivial crossing
 ENTER integrator.F
 STEP NUMBER                  =           47
 CPU TIME [s]                 =   0.29513082653284073       0.20545314280118071     

 *******************************************************************************
 ENSEMBLE TYPE                =                                              NVE
 STEP NUMBER                  =                                               47
 TIME [fs]                    =                                         4.700000
 CONSERVED QUANTITY [hartree] =                               0.485849497861E+01

                                              INSTANTANEOUS             AVERAGES
 CPU TIME [s]                 =                        0.30                 0.21
 ENERGY DRIFT PER ATOM [K]    =          0.487739731656E-01   0.217167669809E-01
 POTENTIAL ENERGY[hartree]    =          0.242894199325E+01   0.242964344262E+01
 KINETIC ENERGY [hartree]     =          0.242955298536E+01   0.242877395404E+01
 TEMPERATURE [K]              =                     568.922              568.740
 *******************************************************************************

 FOBSH| *** OFF-DIAGONAL GRADIENT CALCULATION
 FOBSH| Put former active state           3 in new active state           3
 RANDOM_NUMBER_HOPPING_PROBA  0.53373438748921098     
 FOBSH| ACTIVE STATE =            3

 ENERGY| Total FORCE_EVAL ( MIXED ) energy (a.u.):             2.399177707599025

 FOBSH| CASE1: no hop and no trivial crossing
 ENTER integrator.F
 STEP NUMBER                  =           48
 CPU TIME [s]                 =   0.22637077420949936       0.20588892678885401     

 *******************************************************************************
 ENSEMBLE TYPE                =                                              NVE
 STEP NUMBER                  =                                               48
 TIME [fs]                    =                                         4.800000
 CONSERVED QUANTITY [hartree] =                               0.485847251393E+01

                                              INSTANTANEOUS             AVERAGES
 CPU TIME [s]                 =                        0.23                 0.21
 ENERGY DRIFT PER ATOM [K]    =          0.408919994566E-01   0.221162509908E-01
 POTENTIAL ENERGY[hartree]    =          0.239917770760E+01   0.242900873981E+01
 KINETIC ENERGY [hartree]     =          0.245929480633E+01   0.242940980513E+01
 TEMPERATURE [K]              =                     575.887              568.888
 *******************************************************************************

 FOBSH| *** OFF-DIAGONAL GRADIENT CALCULATION
 FOBSH| Put former active state           3 in new active state           3
 RANDOM_NUMBER_HOPPING_PROBA  0.29876304793700437     
 FOBSH| ACTIVE STATE =            3

 ENERGY| Total FORCE_EVAL ( MIXED ) energy (a.u.):             2.368440101970076

 FOBSH| CASE1: no hop and no trivial crossing
 ENTER integrator.F
 STEP NUMBER                  =           49
 CPU TIME [s]                 =   0.18258387781679630       0.20541331354452630     

 *******************************************************************************
 ENSEMBLE TYPE                =                                              NVE
 STEP NUMBER                  =                                               49
[...]
 KINETIC ENERGY [hartree]     =          0.237431217743E+01   0.246727729520E+01
 TEMPERATURE [K]              =                     555.986              577.756
 *******************************************************************************

 FOBSH| *** OFF-DIAGONAL GRADIENT CALCULATION
 FOBSH| Put former active state           1 in new active state           1
 RANDOM_NUMBER_HOPPING_PROBA  0.82195477349837154     
 FOBSH| ACTIVE STATE =            1

 ENERGY| Total FORCE_EVAL ( MIXED ) energy (a.u.):             2.514944746827154

 FOBSH| CASE1: no hop and no trivial crossing
 ENTER integrator.F
 STEP NUMBER                  =          191
 CPU TIME [s]                 =    7.7732011675834656E-002  0.14520073087193575     

 *******************************************************************************
 ENSEMBLE TYPE                =                                              NVE
 STEP NUMBER                  =                                              191
 TIME [fs]                    =                                        19.100000
 CONSERVED QUANTITY [hartree] =                               0.485840132256E+01

                                              INSTANTANEOUS             AVERAGES
 CPU TIME [s]                 =                        0.08                 0.15
 ENERGY DRIFT PER ATOM [K]    =          0.159137439167E-01   0.361323066563E-02
 POTENTIAL ENERGY[hartree]    =          0.251494474683E+01   0.239173713077E+01
 KINETIC ENERGY [hartree]     =          0.234345657573E+01   0.246662901918E+01
 TEMPERATURE [K]              =                     548.761              577.604
 *******************************************************************************

 FOBSH| *** OFF-DIAGONAL GRADIENT CALCULATION
 FOBSH| Put former active state           1 in new active state           1
 RANDOM_NUMBER_HOPPING_PROBA  0.47798716356543131     
 FOBSH| ACTIVE STATE =            1

 ENERGY| Total FORCE_EVAL ( MIXED ) energy (a.u.):             2.545333846473085

 FOBSH| CASE1: no hop and no trivial crossing
 ENTER integrator.F
 STEP NUMBER                  =          192
 CPU TIME [s]                 =    7.7592868357896805E-002  0.14484860658800847     

 *******************************************************************************
 ENSEMBLE TYPE                =                                              NVE
 STEP NUMBER                  =                                              192
 TIME [fs]                    =                                        19.200000
 CONSERVED QUANTITY [hartree] =                               0.485842523585E+01

                                              INSTANTANEOUS             AVERAGES
 CPU TIME [s]                 =                        0.08                 0.14
 ENERGY DRIFT PER ATOM [K]    =          0.243039776219E-01   0.372099497269E-02
 POTENTIAL ENERGY[hartree]    =          0.254533384647E+01   0.239253711367E+01
 KINETIC ENERGY [hartree]     =          0.231309138937E+01   0.246582934403E+01
 TEMPERATURE [K]              =                     541.650              577.417
 *******************************************************************************

 FOBSH| *** OFF-DIAGONAL GRADIENT CALCULATION
 FOBSH| Put former active state           1 in new active state           1
 RANDOM_NUMBER_HOPPING_PROBA  0.19068212869155288     
 FOBSH| ACTIVE STATE =            1

 ENERGY| Total FORCE_EVAL ( MIXED ) energy (a.u.):             2.574854284150077

 FOBSH| CASE1: no hop and no trivial crossing
 ENTER integrator.F
 STEP NUMBER                  =          193
 CPU TIME [s]                 =    7.7396010980010033E-002  0.14449911127397738     

 *******************************************************************************
 ENSEMBLE TYPE                =                                              NVE
 STEP NUMBER                  =                                              193
 TIME [fs]                    =                                        19.300000
 CONSERVED QUANTITY [hartree] =                               0.485844860982E+01

                                              INSTANTANEOUS             AVERAGES
 CPU TIME [s]                 =                        0.08                 0.14
 ENERGY DRIFT PER ATOM [K]    =          0.325049855979E-01   0.387013482049E-02
 POTENTIAL ENERGY[hartree]    =          0.257485428415E+01   0.239348176222E+01
 KINETIC ENERGY [hartree]     =          0.228359432567E+01   0.246488512113E+01
 TEMPERATURE [K]              =                     534.743              577.196
 *******************************************************************************

 FOBSH| *** OFF-DIAGONAL GRADIENT CALCULATION
 FOBSH| Put former active state           1 in new active state           1
 RANDOM_NUMBER_HOPPING_PROBA   3.9019510409808292E-002
 FOBSH| ACTIVE STATE =            1

 ENERGY| Total FORCE_EVAL ( MIXED ) energy (a.u.):             2.603136574294131

 FOBSH| CASE1: no hop and no trivial crossing
 ENTER integrator.F
 STEP NUMBER                  =          194
 CPU TIME [s]                 =    7.7232517302036285E-002  0.14415237625350347     

 *******************************************************************************
 ENSEMBLE TYPE                =                                              NVE
 STEP NUMBER                  =                                              194
 TIME [fs]                    =                                        19.400000
 CONSERVED QUANTITY [hartree] =                               0.485847115049E+01

                                              INSTANTANEOUS             AVERAGES
 CPU TIME [s]                 =                        0.08                 0.14
 ENERGY DRIFT PER ATOM [K]    =          0.404136221473E-01   0.405850331186E-02
 POTENTIAL ENERGY[hartree]    =          0.260313657429E+01   0.239456245713E+01
 KINETIC ENERGY [hartree]     =          0.225533457620E+01   0.246380496369E+01
 TEMPERATURE [K]              =                     528.126              576.943
 *******************************************************************************

 FOBSH| *** OFF-DIAGONAL GRADIENT CALCULATION
 FOBSH| Put former active state           1 in new active state           1
 RANDOM_NUMBER_HOPPING_PROBA  0.20961789847363788     
 FOBSH| ACTIVE STATE =            1

 ENERGY| Total FORCE_EVAL ( MIXED ) energy (a.u.):             2.629824403597898

 FOBSH| CASE1: no hop and no trivial crossing
 ENTER integrator.F
 STEP NUMBER                  =          195
 CPU TIME [s]                 =    7.7288303524255753E-002  0.14380948357284065     

 *******************************************************************************
 ENSEMBLE TYPE                =                                              NVE
 STEP NUMBER                  =                                              195
 TIME [fs]                    =                                        19.500000
 CONSERVED QUANTITY [hartree] =                               0.485849258437E+01

                                              INSTANTANEOUS             AVERAGES
 CPU TIME [s]                 =                        0.08                 0.14
 ENERGY DRIFT PER ATOM [K]    =          0.479339284205E-01   0.428350549191E-02
 POTENTIAL ENERGY[hartree]    =          0.262982440360E+01   0.239576892865E+01
 KINETIC ENERGY [hartree]     =          0.222866818077E+01   0.246259913403E+01
 TEMPERATURE [K]              =                     521.881              576.660
 *******************************************************************************

 FOBSH| *** OFF-DIAGONAL GRADIENT CALCULATION
 FOBSH| Put former active state           1 in new active state           1
 RANDOM_NUMBER_HOPPING_PROBA  0.25814674508164709     
 FOBSH| ACTIVE STATE =            1

 ENERGY| Total FORCE_EVAL ( MIXED ) energy (a.u.):             2.654579092223421

 FOBSH| CASE1: no hop and no trivial crossing
 ENTER integrator.F
 STEP NUMBER                  =          196
 CPU TIME [s]                 =    8.4513779729604721E-002  0.14350695447159964     

 *******************************************************************************
 ENSEMBLE TYPE                =                                              NVE
 STEP NUMBER                  =                                              196
 TIME [fs]                    =                                        19.600000
 CONSERVED QUANTITY [hartree] =                               0.485851263592E+01

                                              INSTANTANEOUS             AVERAGES
 CPU TIME [s]                 =                        0.08                 0.14
 ENERGY DRIFT PER ATOM [K]    =          0.549692316340E-01   0.454210613549E-02
 POTENTIAL ENERGY[hartree]    =          0.265457909222E+01   0.239708938867E+01
 KINETIC ENERGY [hartree]     =          0.220393354370E+01   0.246127941163E+01
 TEMPERATURE [K]              =                     516.089              576.351
 *******************************************************************************

 FOBSH| *** OFF-DIAGONAL GRADIENT CALCULATION
 FOBSH| Put former active state           1 in new active state           1
 RANDOM_NUMBER_HOPPING_PROBA  0.71866270817859179     
 FOBSH| ACTIVE STATE =            1

 ENERGY| Total FORCE_EVAL ( MIXED ) energy (a.u.):             2.677083866424689

 FOBSH| CASE1: no hop and no trivial crossing
 ENTER integrator.F
 STEP NUMBER                  =          197
 CPU TIME [s]                 =   0.10300414822995663       0.14330135647037301     

 *******************************************************************************
 ENSEMBLE TYPE                =                                              NVE
 STEP NUMBER                  =                                              197
 TIME [fs]                    =                                        19.700000
 CONSERVED QUANTITY [hartree] =                               0.485853106188E+01

                                              INSTANTANEOUS             AVERAGES
 CPU TIME [s]                 =                        0.10                 0.14
 ENERGY DRIFT PER ATOM [K]    =          0.614341760365E-01   0.483089836849E-02
 POTENTIAL ENERGY[hartree]    =          0.267708386642E+01   0.239851068043E+01
 KINETIC ENERGY [hartree]     =          0.218144719546E+01   0.245985894353E+01
 TEMPERATURE [K]              =                     510.824              576.019
 *******************************************************************************

 FOBSH| *** OFF-DIAGONAL GRADIENT CALCULATION
 FOBSH| Put former active state           1 in new active state           1
 RANDOM_NUMBER_HOPPING_PROBA  0.40493253623739994     
 FOBSH| ACTIVE STATE =            1

 ENERGY| Total FORCE_EVAL ( MIXED ) energy (a.u.):             2.697047818898968

 FOBSH| CASE1: no hop and no trivial crossing
 ENTER integrator.F
 STEP NUMBER                  =          198
 CPU TIME [s]                 =    7.2689739987254143E-002  0.14294473214470069     

 *******************************************************************************
 ENSEMBLE TYPE                =                                              NVE
 STEP NUMBER                  =                                              198
 TIME [fs]                    =                                        19.800000
 CONSERVED QUANTITY [hartree] =                               0.485854762718E+01

                                              INSTANTANEOUS             AVERAGES
 CPU TIME [s]                 =                        0.07                 0.14
 ENERGY DRIFT PER ATOM [K]    =          0.672462900544E-01   0.514612761943E-02
 POTENTIAL ENERGY[hartree]    =          0.269704781890E+01   0.240001844376E+01
 KINETIC ENERGY [hartree]     =          0.216149980829E+01   0.245835207921E+01
 TEMPERATURE [K]              =                     506.153              575.666
 *******************************************************************************

 FOBSH| *** OFF-DIAGONAL GRADIENT CALCULATION
 FOBSH| Put former active state           1 in new active state           1
 RANDOM_NUMBER_HOPPING_PROBA  0.39979889317373046     
 FOBSH| ACTIVE STATE =            1

 ENERGY| Total FORCE_EVAL ( MIXED ) energy (a.u.):             2.714209616785872

 FOBSH| CASE1: no hop and no trivial crossing
 ENTER integrator.F
 STEP NUMBER                  =          199
 CPU TIME [s]                 =    7.1453453972935677E-002  0.14258547949057121     

 *******************************************************************************
 ENSEMBLE TYPE                =                                              NVE
 STEP NUMBER                  =                                              199
 TIME [fs]                    =                                        19.900000
 CONSERVED QUANTITY [hartree] =                               0.485856212578E+01

                                              INSTANTANEOUS             AVERAGES
 CPU TIME [s]                 =                        0.07                 0.14
 ENERGY DRIFT PER ATOM [K]    =          0.723332792973E-01   0.548375149721E-02
 POTENTIAL ENERGY[hartree]    =          0.271420961679E+01   0.240159729387E+01
 KINETIC ENERGY [hartree]     =          0.214435250900E+01   0.245677419192E+01
 TEMPERATURE [K]              =                     502.137              575.296
 *******************************************************************************

 FOBSH| *** OFF-DIAGONAL GRADIENT CALCULATION
 FOBSH| Put former active state           1 in new active state           1
 RANDOM_NUMBER_HOPPING_PROBA  0.61636574408134326     
 FOBSH| ACTIVE STATE =            1

 ENERGY| Total FORCE_EVAL ( MIXED ) energy (a.u.):             2.728340750291268

 FOBSH| CASE1: no hop and no trivial crossing
 ENTER integrator.F
 STEP NUMBER                  =          200
 CPU TIME [s]                 =    7.1607045829296112E-002  0.14223058732226485     

 *******************************************************************************
 ENSEMBLE TYPE                =                                              NVE
 STEP NUMBER                  =                                              200
 TIME [fs]                    =                                        20.000000
 CONSERVED QUANTITY [hartree] =                               0.485857437852E+01

                                              INSTANTANEOUS             AVERAGES
 CPU TIME [s]                 =                        0.07                 0.14
 ENERGY DRIFT PER ATOM [K]    =          0.766322813860E-01   0.583949414665E-02
 POTENTIAL ENERGY[hartree]    =          0.272834075029E+01   0.240323101115E+01
 KINETIC ENERGY [hartree]     =          0.213023362822E+01   0.245514148910E+01
 TEMPERATURE [K]              =                     498.831              574.914
 *******************************************************************************


 -------------------------------------------------------------------------------
 -                                                                             -
 -                                DBCSR STATISTICS                             -
 -                                                                             -
 -------------------------------------------------------------------------------
 COUNTER                                    TOTAL       BLAS       SMM       ACC
 flops total                                    0       0.0%      0.0%      0.0%
 flops max/rank                                 0       0.0%      0.0%      0.0%
 matmuls inhomo. stacks                         0       0.0%      0.0%      0.0%
 matmuls total                                  0       0.0%      0.0%      0.0%
 number of processed stacks                     0       0.0%      0.0%      0.0%
 average stack size                                     0.0       0.0       0.0
 marketing flops                     0.000000E+00
 -------------------------------------------------------------------------------

 MEMORY| Estimated peak process memory [MiB]                                 104

 -------------------------------------------------------------------------------
 -                                                                             -
 -                           R E F E R E N C E S                               -
 -                                                                             -
 -------------------------------------------------------------------------------
 
 CP2K version 4.0 (Development Version), the CP2K developers group (2015).
 CP2K is freely available from https://www.cp2k.org/ .

 Borstnik, U; VandeVondele, J; Weber, V; Hutter, J. 
 PARALLEL COMPUTING, 40 (5-6), 47-58 (2014). 
 Sparse matrix multiplication: The distributed block-compressed sparse
 row library.
 http://dx.doi.org/10.1016/j.parco.2014.03.012


 Hutter, J; Iannuzzi, M; Schiffmann, F; VandeVondele, J. 
 WILEY INTERDISCIPLINARY REVIEWS-COMPUTATIONAL MOLECULAR SCIENCE, 4 (1), 15-25 (2014). 
 CP2K: atomistic simulations of condensed matter systems.
 http://dx.doi.org/10.1002/wcms.1159


 Frigo, M; Johnson, SG. 
 PROCEEDINGS OF THE IEEE, 93 (2), 216-231 (2005). 
 The design and implementation of FFTW3.
 http://dx.doi.org/10.1109/JPROC.2004.840301


 -------------------------------------------------------------------------------
 -                                                                             -
 -                                T I M I N G                                  -
 -                                                                             -
 -------------------------------------------------------------------------------
 SUBROUTINE                       CALLS  ASD         SELF TIME        TOTAL TIME
                                MAXIMUM       AVERAGE  MAXIMUM  AVERAGE  MAXIMUM
 CP2K                                 1  1.0    0.009    0.009   38.196   38.196
 qs_mol_dyn_low                       1  2.0    0.222    0.222   28.498   28.498
 velocity_verlet                    200  3.0   19.801   19.801   26.865   26.865
 topology_control                     3  4.0    0.031    0.031    9.040    9.040
 connectivity_control                 3  5.0    0.006    0.006    8.728    8.728
 read_topology_psf                  150  6.0    3.885    3.885    8.715    8.715
 fist_calc_energy_force             408  4.0    0.068    0.068    7.340    7.340
 fist_create_force_env                2  2.0    0.000    0.000    6.778    6.778
 fist_init                            2  3.0    0.001    0.001    6.778    6.778
 force_nonbond                      204  5.0    5.609    5.609    5.609    5.609
 parser_read_line                 12762  7.2    0.260    0.260    5.432    5.432
 parser_read_line_low               171  7.9    5.170    5.170    5.173    5.173
 mixed_create_force_env               1  2.0    0.000    0.000    2.894    2.894
 mixed_init                           1  3.0    0.000    0.000    2.894    2.894
 force_intra_control                408  5.0    1.049    1.049    1.049    1.049
 md_output                          200  3.0    0.001    0.001    1.034    1.034
 md_write_output                    201  4.0    0.917    0.917    1.003    1.003
 -------------------------------------------------------------------------------

 The number of warnings for this run is : 1
 
 -------------------------------------------------------------------------------
  **** **** ******  **  PROGRAM ENDED AT                 2021-04-29 14:24:08.423
 ***** ** ***  *** **   PROGRAM RAN ON                   bulstake.phys.ucl.ac.uk
 **    ****   ******    PROGRAM RAN BY                                 sgiannini
 ***** **    ** ** **   PROGRAM PROCESS ID                                 13005
  **** **  *******  **  PROGRAM STOPPED IN /scratch/sgiannini/REG_TEST_MERGING/3
                                           7-071a0540f1_code_extension_V3_ADJ/ru
                                           n-fssh-UNMOD_SH
