 DBCSR| Multiplication driver                                               XSMM
 DBCSR| Multrec recursion limit                                              512
 DBCSR| Multiplication stack size                                           1000
 DBCSR| Maximum elements for images                                    UNLIMITED
 DBCSR| Randmat seed                                                    12341313
 DBCSR| Multiplication size stacks                                             3


  **** **** ******  **  PROGRAM STARTED AT               2021-04-29 14:23:29.578
 ***** ** ***  *** **   PROGRAM STARTED ON               bulstake.phys.ucl.ac.uk
 **    ****   ******    PROGRAM STARTED BY                             sgiannini
 ***** **    ** ** **   PROGRAM PROCESS ID                                 12971
  **** **  *******  **  PROGRAM STARTED IN /scratch/sgiannini/REG_TEST_MERGING/3
                                           7-071a0540f1_code_extension_V3_ADJ/ru
                                           n-fssh-3NAP-3ANT-mixed-inp-C-int-3FF-
                                           FE-CT

 CP2K| version string:                    CP2K version 4.0 (Development Version)
 CP2K| source code revision number:                                  git:1080fc1
 CP2K| cp2kflags: libint fftw3 libxc quip smm_dnn smm libxsmm libderiv_max_am1=5
 CP2K|             libint_max_am=6
 CP2K| is freely available from                            https://www.cp2k.org/
 CP2K| Program compiled at                          Thu 29 Apr 10:11:08 BST 2021
 CP2K| Program compiled on                               bulstake.phys.ucl.ac.uk
 CP2K| Program compiled for                                         local_hetero
 CP2K| Data directory path           /scratch/sgiannini/flavoured-cptk/cp2k/data
 CP2K| Input file name                                                   run.inp

 GLOBAL| Force Environment number                                              1
 GLOBAL| Basis set file name                                           POTENTIAL
 GLOBAL| MM Potential file name                                     MM_POTENTIAL
 GLOBAL| Coordinate file name                                       pos-init.xyz
 GLOBAL| Force Environment number                                              2
 GLOBAL| Basis set file name                                           POTENTIAL
 GLOBAL| MM Potential file name                                     MM_POTENTIAL
 GLOBAL| Coordinate file name                                       pos-init.xyz
 GLOBAL| Force Environment number                                              3
 GLOBAL| Basis set file name                                           POTENTIAL
 GLOBAL| MM Potential file name                                     MM_POTENTIAL
 GLOBAL| Coordinate file name                                       pos-init.xyz
 GLOBAL| Force Environment number                                              4
 GLOBAL| Basis set file name                                           POTENTIAL
 GLOBAL| MM Potential file name                                     MM_POTENTIAL
 GLOBAL| Coordinate file name                                       pos-init.xyz
 GLOBAL| Method name                                                        CP2K
 GLOBAL| Project name                                                        run
 GLOBAL| Preferred FFT library                                             FFTW3
 GLOBAL| Preferred diagonalization lib.                                       SL
 GLOBAL| Run type                                                             MD
 GLOBAL| All-to-all communication in single precision                          F
 GLOBAL| FFTs using library dependent lengths                                  F
 GLOBAL| Global print level                                                  LOW
 GLOBAL| Total number of message passing processes                             1
 GLOBAL| Number of threads for this process                                    1
 GLOBAL| This output is from process                                           0
 GLOBAL| CPU model name :  Intel(R) Xeon(R) CPU E5-2687W v4 @ 3.00GHz

 MEMORY| system memory details [Kb]
 MEMORY|                        rank 0           min           max       average
 MEMORY| MemTotal             65894336      65894336      65894336      65894336
 MEMORY| MemFree               7009736       7009736       7009736       7009736
 MEMORY| Buffers                  8744          8744          8744          8744
 MEMORY| Cached               40779116      40779116      40779116      40779116
 MEMORY| Slab                  3236700       3236700       3236700       3236700
 MEMORY| SReclaimable          2479316       2479316       2479316       2479316
 MEMORY| MemLikelyFree        50276912      50276912      50276912      50276912

 TOTAL NUMBER OF FORCE EVALS           4
 NOTE:n_subforce_eval           3
 DECOMP =  T
 DECOMP =  T
 DECOMP =  T

 MD| Molecular Dynamics Protocol 
 MD| Ensemble Type                                                           NVE
 MD| Number of Time Steps                                                    200
 MD| Time Step [fs]                                                         0.10
 MD| Temperature [K]                                                      300.00
 MD| Temperature tolerance [K]                                              0.00
 MD| Print MD information every                                        1 step(s)
 MD| File type     Print frequency[steps]                             File names
 MD| Coordinates          200                                      run-pos-1.xyz
 MD| Velocities             1                                      run-vel-1.xyz
 MD| Energies               1                                         run-1.ener
 MD| Dump                 200                                      run-1.restart

 ROT| Rotational Analysis Info 
 ROT| Principal axes and moments of inertia in atomic units:
 ROT|                                1                 2                 3
 ROT| EIGENVALUES            0.985896973E+10   0.107170943E+11   0.110804981E+11
 ROT|      X                    -0.154147334       0.988042579       0.003234479
 ROT|      Y                     0.692344076       0.105677900       0.713786986
 ROT|      Z                     0.704910121       0.112267733      -0.700355393
 ROT| Numer of Rotovibrational vectors:     6

 Calculation of degrees of freedom
                                                      Number of atoms:       248
                                 Number of Intramolecular constraints:         0
                                 Number of Intermolecular constraints:         0
                                  Invariants(translation + rotations):         3
                                                   Degrees of freedom:       741


 Restraints Information
                                  Number of Intramolecular restraints:         0
                                  Number of Intermolecular restraints:         0

 *** WARNING in motion/thermostat/thermostat_methods.F:280 :: Thermostat ***
 *** for Particles has been defined but the ensemble provided does not   ***
 *** support thermostat for Particles! Ignoring thermostat input.        ***

 ************************** Velocities initialization **************************
 Initial Temperature                                                      0.00 K
 COM velocity:            0.000000000000      0.000000000000      0.000000000000
 *******************************************************************************

 FIRST CALL: force_env_calc_energy_force
 RESTART_KEY F
 ACTIVE STATE           1
 FOBSH| ACTIVE STATE =            1

 ENERGY| Total FORCE_EVAL ( MIXED ) energy (a.u.):             0.488002325100769

 STEP NUMBER                  =            0
 CPU TIME [s]                 =    0.0000000000000000        0.0000000000000000     

 MD_ENERGIES| Initialization proceeding


 ******************************** GO CP2K GO! **********************************
 INITIAL POTENTIAL ENERGY[hartree]     =                      0.488002325101E+00
 INITIAL KINETIC ENERGY[hartree]       =                      0.000000000000E+00
 INITIAL TEMPERATURE[K]                =                                   0.000
 INITIAL VOLUME[bohr^3]                =                      0.145764026995E+07
 INITIAL CELL LNTHS[bohr]   =      0.1133836E+03   0.1133836E+03   0.1133836E+03
 INITIAL CELL ANGLS[deg]    =      0.9000000E+02   0.9000000E+02   0.9000000E+02
 ******************************** GO CP2K GO! **********************************
 FOBSH| Put former active state           1 in new active state           1
 RANDOM_NUMBER_HOPPING_PROBA  0.67153030463454866     
 FOBSH| ACTIVE STATE =            1

 ENERGY| Total FORCE_EVAL ( MIXED ) energy (a.u.):             0.487133693631272

 FOBSH| CASE1: no hop and no trivial crossing
 ENTER integrator.F
 STEP NUMBER                  =            1
 CPU TIME [s]                 =    2.8847409412264824E-002   2.8847409412264824E-002

 *******************************************************************************
 ENSEMBLE TYPE                =                                              NVE
 STEP NUMBER                  =                                                1
 TIME [fs]                    =                                         0.100000
 CONSERVED QUANTITY [hartree] =                               0.488001701396E+00

                                              INSTANTANEOUS             AVERAGES
 CPU TIME [s]                 =                        0.03                 0.03
 ENERGY DRIFT PER ATOM [K]    =         -0.794154407849E-03   0.000000000000E+00
 POTENTIAL ENERGY[hartree]    =          0.487133693631E+00   0.487133693631E+00
 KINETIC ENERGY [hartree]     =          0.868007764287E-03   0.868007764287E-03
 TEMPERATURE [K]              =                       0.740                0.740
 *******************************************************************************

 FOBSH| Put former active state           1 in new active state           1
 RANDOM_NUMBER_HOPPING_PROBA  0.39187096629970736     
 FOBSH| ACTIVE STATE =            1

 ENERGY| Total FORCE_EVAL ( MIXED ) energy (a.u.):             0.484537770785544

 FOBSH| CASE1: no hop and no trivial crossing
 ENTER integrator.F
 STEP NUMBER                  =            2
 CPU TIME [s]                 =    2.0276155322790146E-002   2.4561782367527485E-002

 *******************************************************************************
 ENSEMBLE TYPE                =                                              NVE
 STEP NUMBER                  =                                                2
 TIME [fs]                    =                                         0.200000
 CONSERVED QUANTITY [hartree] =                               0.487999837986E+00

                                              INSTANTANEOUS             AVERAGES
 CPU TIME [s]                 =                        0.02                 0.02
 ENERGY DRIFT PER ATOM [K]    =         -0.316680527069E-02  -0.158340263535E-02
 POTENTIAL ENERGY[hartree]    =          0.484537770786E+00   0.485835732208E+00
 KINETIC ENERGY [hartree]     =          0.346206720072E-02   0.216503748250E-02
 TEMPERATURE [K]              =                       2.951                1.845
 *******************************************************************************

 FOBSH| Put former active state           1 in new active state           1
 RANDOM_NUMBER_HOPPING_PROBA   4.1282260461410090E-003
 FOBSH| ACTIVE STATE =            1

 ENERGY| Total FORCE_EVAL ( MIXED ) energy (a.u.):             0.480244348146253

 FOBSH| CASE1: no hop and no trivial crossing
 ENTER integrator.F
 STEP NUMBER                  =            3
 CPU TIME [s]                 =    6.8847574293613434E-003   1.8669440721472103E-002

 *******************************************************************************
 ENSEMBLE TYPE                =                                              NVE
 STEP NUMBER                  =                                                3
 TIME [fs]                    =                                         0.300000
 CONSERVED QUANTITY [hartree] =                               0.487996757894E+00

                                              INSTANTANEOUS             AVERAGES
 CPU TIME [s]                 =                        0.01                 0.02
 ENERGY DRIFT PER ATOM [K]    =         -0.708863971766E-02  -0.341848166279E-02
 POTENTIAL ENERGY[hartree]    =          0.480244348146E+00   0.483971937521E+00
 KINETIC ENERGY [hartree]     =          0.775240974809E-02   0.402749490436E-02
 TEMPERATURE [K]              =                       6.607                3.433
 *******************************************************************************

 FOBSH| Put former active state           1 in new active state           1
 RANDOM_NUMBER_HOPPING_PROBA  0.59370184584753216     
 FOBSH| ACTIVE STATE =            1

 ENERGY| Total FORCE_EVAL ( MIXED ) energy (a.u.):             0.474302669556992

 FOBSH| CASE1: no hop and no trivial crossing
 ENTER integrator.F
 STEP NUMBER                  =            4
 CPU TIME [s]                 =    1.9802918657660484E-002   1.8952810205519199E-002

 *******************************************************************************
 ENSEMBLE TYPE                =                                              NVE
 STEP NUMBER                  =                                                4
 TIME [fs]                    =                                         0.400000
 CONSERVED QUANTITY [hartree] =                               0.487992499165E+00

                                              INSTANTANEOUS             AVERAGES
 CPU TIME [s]                 =                        0.02                 0.02
 ENERGY DRIFT PER ATOM [K]    =         -0.125112154138E-01  -0.569166510055E-02
 POTENTIAL ENERGY[hartree]    =          0.474302669557E+00   0.481554620530E+00
 KINETIC ENERGY [hartree]     =          0.136898296080E-01   0.644307858026E-02
 TEMPERATURE [K]              =                      11.668                5.491
 *******************************************************************************

 FOBSH| Put former active state           1 in new active state           1
 RANDOM_NUMBER_HOPPING_PROBA  0.84108216314229423     
 FOBSH| ACTIVE STATE =            1

 ENERGY| Total FORCE_EVAL ( MIXED ) energy (a.u.):             0.466780823363609

 FOBSH| CASE1: no hop and no trivial crossing
 ENTER integrator.F
 STEP NUMBER                  =            5
 CPU TIME [s]                 =    6.6863577812910080E-003   1.6499519720673563E-002

 *******************************************************************************
 ENSEMBLE TYPE                =                                              NVE
 STEP NUMBER                  =                                                5
 TIME [fs]                    =                                         0.500000
 CONSERVED QUANTITY [hartree] =                               0.487987114386E+00

                                              INSTANTANEOUS             AVERAGES
 CPU TIME [s]                 =                        0.01                 0.02
 ENERGY DRIFT PER ATOM [K]    =         -0.193675735854E-01  -0.842684679752E-02
 POTENTIAL ENERGY[hartree]    =          0.466780823364E+00   0.478599861097E+00
 KINETIC ENERGY [hartree]     =          0.212062910219E-01   0.939572106859E-02
 TEMPERATURE [K]              =                      18.074                8.008
 *******************************************************************************

 FOBSH| Put former active state           1 in new active state           1
 RANDOM_NUMBER_HOPPING_PROBA  0.76079277630078090     
 FOBSH| ACTIVE STATE =            1

 ENERGY| Total FORCE_EVAL ( MIXED ) energy (a.u.):             0.457764902344658

 FOBSH| CASE1: no hop and no trivial crossing
 ENTER integrator.F
 STEP NUMBER                  =            6
 CPU TIME [s]                 =    7.1568135172128677E-003   1.4942402020096781E-002

 *******************************************************************************
 ENSEMBLE TYPE                =                                              NVE
 STEP NUMBER                  =                                                6
 TIME [fs]                    =                                         0.600000
 CONSERVED QUANTITY [hartree] =                               0.487980670021E+00

                                              INSTANTANEOUS             AVERAGES
 CPU TIME [s]                 =                        0.01                 0.01
 ENERGY DRIFT PER ATOM [K]    =         -0.275730860588E-01  -0.116178866744E-01
 POTENTIAL ENERGY[hartree]    =          0.457764902345E+00   0.475127367971E+00
 KINETIC ENERGY [hartree]     =          0.302157676759E-01   0.128657288365E-01
 TEMPERATURE [K]              =                      25.753               10.965
 *******************************************************************************

 FOBSH| Put former active state           1 in new active state           1
 RANDOM_NUMBER_HOPPING_PROBA  0.79577819759069601     
 FOBSH| ACTIVE STATE =            1

 ENERGY| Total FORCE_EVAL ( MIXED ) energy (a.u.):             0.447357941955332

 FOBSH| CASE1: no hop and no trivial crossing
 ENTER integrator.F
 STEP NUMBER                  =            7
 CPU TIME [s]                 =    1.9824013113975525E-002   1.5639775033508028E-002

 *******************************************************************************
 ENSEMBLE TYPE                =                                              NVE
 STEP NUMBER                  =                                                7
 TIME [fs]                    =                                         0.700000
 CONSERVED QUANTITY [hartree] =                               0.487973245571E+00

                                              INSTANTANEOUS             AVERAGES
 CPU TIME [s]                 =                        0.02                 0.02
 ENERGY DRIFT PER ATOM [K]    =         -0.370265255083E-01  -0.152476922221E-01
 POTENTIAL ENERGY[hartree]    =          0.447357941955E+00   0.471160307112E+00
 KINETIC ENERGY [hartree]     =          0.406153036155E-01   0.168299538049E-01
 TEMPERATURE [K]              =                      34.616               14.344
 *******************************************************************************

 FOBSH| Put former active state           1 in new active state           1
 RANDOM_NUMBER_HOPPING_PROBA  0.36353458967413632     
 FOBSH| ACTIVE STATE =            1

 ENERGY| Total FORCE_EVAL ( MIXED ) energy (a.u.):             0.435678650308667

 FOBSH| CASE1: no hop and no trivial crossing
 ENTER integrator.F
 STEP NUMBER                  =            8
 CPU TIME [s]                 =    6.2821321189403534E-003   1.4470069669187069E-002

 *******************************************************************************
 ENSEMBLE TYPE                =                                              NVE
 STEP NUMBER                  =                                                8
 TIME [fs]                    =                                         0.800000
 CONSERVED QUANTITY [hartree] =                               0.487964932569E+00

                                              INSTANTANEOUS             AVERAGES
 CPU TIME [s]                 =                        0.01                 0.01
 ENERGY DRIFT PER ATOM [K]    =         -0.476113449564E-01  -0.192931488139E-01
 POTENTIAL ENERGY[hartree]    =          0.435678650309E+00   0.466725100012E+00
 KINETIC ENERGY [hartree]     =          0.522862822603E-01   0.212619948618E-01
 TEMPERATURE [K]              =                      44.563               18.121
 *******************************************************************************

 FOBSH| Put former active state           1 in new active state           1
 RANDOM_NUMBER_HOPPING_PROBA  0.99959115682052468     
 FOBSH| ACTIVE STATE =            1

 ENERGY| Total FORCE_EVAL ( MIXED ) energy (a.u.):             0.422859945943277

 FOBSH| CASE1: no hop and no trivial crossing
 ENTER integrator.F
 STEP NUMBER                  =            9
 CPU TIME [s]                 =    1.9659094512462616E-002   1.5046627985106573E-002

 *******************************************************************************
 ENSEMBLE TYPE                =                                              NVE
 STEP NUMBER                  =                                                9
 TIME [fs]                    =                                         0.900000
 CONSERVED QUANTITY [hartree] =                               0.487955833423E+00

                                              INSTANTANEOUS             AVERAGES
 CPU TIME [s]                 =                        0.02                 0.02
 ENERGY DRIFT PER ATOM [K]    =         -0.591971501210E-01  -0.237269267369E-01
 POTENTIAL ENERGY[hartree]    =          0.422859945943E+00   0.461851194004E+00
 KINETIC ENERGY [hartree]     =          0.650958874796E-01   0.261324273749E-01
 TEMPERATURE [K]              =                      55.481               22.272
 *******************************************************************************

 FOBSH| Put former active state           1 in new active state           1
 RANDOM_NUMBER_HOPPING_PROBA  0.31180896676524200     
 FOBSH| ACTIVE STATE =            1

 ENERGY| Total FORCE_EVAL ( MIXED ) energy (a.u.):             0.409047321846147

 FOBSH| CASE1: no hop and no trivial crossing
 ENTER integrator.F
 STEP NUMBER                  =           10
 CPU TIME [s]                 =    6.1158407479524612E-003   1.4153549261391164E-002

 *******************************************************************************
 ENSEMBLE TYPE                =                                              NVE
 STEP NUMBER                  =                                               10
 TIME [fs]                    =                                         1.000000
 CONSERVED QUANTITY [hartree] =                               0.487946060122E+00

                                              INSTANTANEOUS             AVERAGES
 CPU TIME [s]                 =                        0.01                 0.01
 ENERGY DRIFT PER ATOM [K]    =         -0.716413456667E-01  -0.285183686299E-01
 POTENTIAL ENERGY[hartree]    =          0.409047321846E+00   0.456570806788E+00
 KINETIC ENERGY [hartree]     =          0.788987382763E-01   0.314090584651E-01
 TEMPERATURE [K]              =                      67.245               26.770
 *******************************************************************************

 FOBSH| Put former active state           1 in new active state           1
 RANDOM_NUMBER_HOPPING_PROBA  0.39309630234819626     
 FOBSH| ACTIVE STATE =            1

 ENERGY| Total FORCE_EVAL ( MIXED ) energy (a.u.):             0.394397056381042

 FOBSH| CASE1: no hop and no trivial crossing
 ENTER integrator.F
 STEP NUMBER                  =           11
 CPU TIME [s]                 =    1.9904546439647675E-002   1.4676367186687210E-002

 *******************************************************************************
 ENSEMBLE TYPE                =                                              NVE
 STEP NUMBER                  =                                               11
 TIME [fs]                    =                                         1.100000
 CONSERVED QUANTITY [hartree] =                               0.487935732827E+00

                                              INSTANTANEOUS             AVERAGES
 CPU TIME [s]                 =                        0.02                 0.01
 ENERGY DRIFT PER ATOM [K]    =         -0.847909342379E-01  -0.336340564124E-01
 POTENTIAL ENERGY[hartree]    =          0.394397056381E+00   0.450918647660E+00
 KINETIC ENERGY [hartree]     =          0.935386764463E-01   0.370572055543E-01
 TEMPERATURE [K]              =                      79.722               31.584
 *******************************************************************************

 FOBSH| Put former active state           1 in new active state           1
 RANDOM_NUMBER_HOPPING_PROBA  0.61606701303784250     
 FOBSH| ACTIVE STATE =            1

 ENERGY| Total FORCE_EVAL ( MIXED ) energy (a.u.):             0.379074293690409

 FOBSH| CASE1: no hop and no trivial crossing
 ENTER integrator.F
 STEP NUMBER                  =           12
 CPU TIME [s]                 =    5.9809871017932892E-003   1.3951752179612715E-002

 *******************************************************************************
 ENSEMBLE TYPE                =                                              NVE
 STEP NUMBER                  =                                               12
 TIME [fs]                    =                                         1.200000
 CONSERVED QUANTITY [hartree] =                               0.487924978352E+00

                                              INSTANTANEOUS             AVERAGES
 CPU TIME [s]                 =                        0.01                 0.01
 ENERGY DRIFT PER ATOM [K]    =         -0.984844453234E-01  -0.390382554883E-01
 POTENTIAL ENERGY[hartree]    =          0.379074293690E+00   0.444931618163E+00
 KINETIC ENERGY [hartree]     =          0.108850684661E+00   0.430399954798E-01
 TEMPERATURE [K]              =                      92.773               36.683
 *******************************************************************************

 FOBSH| Put former active state           1 in new active state           1
 RANDOM_NUMBER_HOPPING_PROBA  0.70730456130563957     
 FOBSH| ACTIVE STATE =            1

 ENERGY| Total FORCE_EVAL ( MIXED ) energy (a.u.):             0.363251017767560

 FOBSH| CASE1: no hop and no trivial crossing
 ENTER integrator.F
 STEP NUMBER                  =           13
 CPU TIME [s]                 =    1.9698966294527054E-002   1.4393845573067665E-002

 *******************************************************************************
 ENSEMBLE TYPE                =                                              NVE
 STEP NUMBER                  =                                               13
 TIME [fs]                    =                                         1.300000
 CONSERVED QUANTITY [hartree] =                               0.487913928567E+00

                                              INSTANTANEOUS             AVERAGES
 CPU TIME [s]                 =                        0.02                 0.01
 ENERGY DRIFT PER ATOM [K]    =         -0.112553969245E+00  -0.446933103927E-01
 POTENTIAL ENERGY[hartree]    =          0.363251017768E+00   0.438648495055E+00
 KINETIC ENERGY [hartree]     =          0.124662910799E+00   0.493186812737E-01
 TEMPERATURE [K]              =                     106.249               42.034
 *******************************************************************************

 FOBSH| Put former active state           1 in new active state           1
 RANDOM_NUMBER_HOPPING_PROBA  0.94912172072038947     
 FOBSH| ACTIVE STATE =            1

 ENERGY| Total FORCE_EVAL ( MIXED ) energy (a.u.):             0.347103943975727

 FOBSH| CASE1: no hop and no trivial crossing
 ENTER integrator.F
 STEP NUMBER                  =           14
 CPU TIME [s]                 =    5.9463679790496826E-003   1.3790454316352094E-002

 *******************************************************************************
 ENSEMBLE TYPE                =                                              NVE
 STEP NUMBER                  =                                               14
 TIME [fs]                    =                                         1.400000
 CONSERVED QUANTITY [hartree] =                               0.487902720384E+00

                                              INSTANTANEOUS             AVERAGES
 CPU TIME [s]                 =                        0.01                 0.01
 ENERGY DRIFT PER ATOM [K]    =         -0.126825179224E+00  -0.505598724521E-01
 POTENTIAL ENERGY[hartree]    =          0.347103943976E+00   0.432109598550E+00
 KINETIC ENERGY [hartree]     =          0.140798776408E+00   0.558529737832E-01
 TEMPERATURE [K]              =                     120.002               47.603
 *******************************************************************************

 FOBSH| Put former active state           1 in new active state           1
 RANDOM_NUMBER_HOPPING_PROBA  0.32809458864938340     
 FOBSH| ACTIVE STATE =            1

 ENERGY| Total FORCE_EVAL ( MIXED ) energy (a.u.):             0.330812357701974

 FOBSH| CASE1: no hop and no trivial crossing
 ENTER integrator.F
 STEP NUMBER                  =           15
 CPU TIME [s]                 =    2.6626873761415482E-002   1.4646215612689653E-002

 *******************************************************************************
 ENSEMBLE TYPE                =                                              NVE
 STEP NUMBER                  =                                               15
 TIME [fs]                    =                                         1.500000
 CONSERVED QUANTITY [hartree] =                               0.487891487409E+00

                                              INSTANTANEOUS             AVERAGES
 CPU TIME [s]                 =                        0.03                 0.01
 ENERGY DRIFT PER ATOM [K]    =         -0.141127956534E+00  -0.565977447242E-01
 POTENTIAL ENERGY[hartree]    =          0.330812357702E+00   0.425356449160E+00
 KINETIC ENERGY [hartree]     =          0.157079129707E+00   0.626013841781E-01
 TEMPERATURE [K]              =                     133.877               53.355
 *******************************************************************************

 FOBSH| Put former active state           1 in new active state           1
 RANDOM_NUMBER_HOPPING_PROBA   1.7491700276330503E-002
 FOBSH| ACTIVE STATE =            1

 ENERGY| Total FORCE_EVAL ( MIXED ) energy (a.u.):             0.314555937922490

 FOBSH| CASE1: no hop and no trivial crossing
 ENTER integrator.F
 STEP NUMBER                  =           16
 CPU TIME [s]                 =    6.7271366715431213E-003   1.4151273178867996E-002

 *******************************************************************************
 ENSEMBLE TYPE                =                                              NVE
 STEP NUMBER                  =                                               16
 TIME [fs]                    =                                         1.600000
 CONSERVED QUANTITY [hartree] =                               0.487880368095E+00

                                              INSTANTANEOUS             AVERAGES
 CPU TIME [s]                 =                        0.01                 0.01
 ENERGY DRIFT PER ATOM [K]    =         -0.155286010723E+00  -0.627657613491E-01
 POTENTIAL ENERGY[hartree]    =          0.314555937922E+00   0.418431417208E+00
 KINETIC ENERGY [hartree]     =          0.173324430172E+00   0.695215745528E-01
 TEMPERATURE [K]              =                     147.723               59.253
 *******************************************************************************

 FOBSH| Put former active state           1 in new active state           1
 RANDOM_NUMBER_HOPPING_PROBA  0.62251321121182945     
 FOBSH| ACTIVE STATE =            1

 ENERGY| Total FORCE_EVAL ( MIXED ) energy (a.u.):             0.298512557175450

 FOBSH| CASE1: no hop and no trivial crossing
 ENTER integrator.F
 STEP NUMBER                  =           17
 CPU TIME [s]                 =    1.9892787560820580E-002   1.4489009318982853E-002

 *******************************************************************************
 ENSEMBLE TYPE                =                                              NVE
 STEP NUMBER                  =                                               17
 TIME [fs]                    =                                         1.700000
 CONSERVED QUANTITY [hartree] =                               0.487869497713E+00

                                              INSTANTANEOUS             AVERAGES
 CPU TIME [s]                 =                        0.02                 0.01
 ENERGY DRIFT PER ATOM [K]    =         -0.169127103407E+00  -0.690223108819E-01
 POTENTIAL ENERGY[hartree]    =          0.298512557175E+00   0.411377366617E+00
 KINETIC ENERGY [hartree]     =          0.189356940537E+00   0.765707137283E-01
 TEMPERATURE [K]              =                     161.388               65.261
 *******************************************************************************

 FOBSH| Put former active state           1 in new active state           1
 RANDOM_NUMBER_HOPPING_PROBA  0.28033938638646910     
 FOBSH| ACTIVE STATE =            1

 ENERGY| Total FORCE_EVAL ( MIXED ) energy (a.u.):             0.282856125670204

 FOBSH| CASE1: no hop and no trivial crossing
 ENTER integrator.F
 STEP NUMBER                  =           18
 CPU TIME [s]                 =    6.9432016462087631E-003   1.4069797781606514E-002

 *******************************************************************************
 ENSEMBLE TYPE                =                                              NVE
 STEP NUMBER                  =                                               18
 TIME [fs]                    =                                         1.800000
 CONSERVED QUANTITY [hartree] =                               0.487859009004E+00

                                              INSTANTANEOUS             AVERAGES
 CPU TIME [s]                 =                        0.01                 0.01
 ENERGY DRIFT PER ATOM [K]    =         -0.182482218066E+00  -0.753256390588E-01
 POTENTIAL ENERGY[hartree]    =          0.282856125670E+00   0.404237297676E+00
 KINETIC ENERGY [hartree]     =          0.205002883334E+00   0.837058342620E-01
 TEMPERATURE [K]              =                     174.723               71.342
 *******************************************************************************

 FOBSH| Put former active state           1 in new active state           1
 RANDOM_NUMBER_HOPPING_PROBA   2.4476788726442510E-002
 FOBSH| ACTIVE STATE =            1

 ENERGY| Total FORCE_EVAL ( MIXED ) energy (a.u.):             0.267754482154310

 FOBSH| CASE1: no hop and no trivial crossing
 ENTER integrator.F
 STEP NUMBER                  =           19
 CPU TIME [s]                 =    1.9652461633086205E-002   1.4363622194842288E-002

 *******************************************************************************
 ENSEMBLE TYPE                =                                              NVE
 STEP NUMBER                  =                                               19
 TIME [fs]                    =                                         1.900000
 CONSERVED QUANTITY [hartree] =                               0.487849027054E+00

                                              INSTANTANEOUS             AVERAGES
 CPU TIME [s]                 =                        0.02                 0.01
 ENERGY DRIFT PER ATOM [K]    =         -0.195192084235E+00  -0.816343993312E-01
 POTENTIAL ENERGY[hartree]    =          0.267754482154E+00   0.397053991596E+00
 KINETIC ENERGY [hartree]     =          0.220094544899E+00   0.908841874534E-01
 TEMPERATURE [K]              =                     187.585               77.460
 *******************************************************************************

 FOBSH| Put former active state           1 in new active state           1
 RANDOM_NUMBER_HOPPING_PROBA  0.69400398301725019     
 FOBSH| ACTIVE STATE =            1

 ENERGY| Total FORCE_EVAL ( MIXED ) energy (a.u.):             0.253367377957257

 FOBSH| CASE1: no hop and no trivial crossing
 ENTER integrator.F
 STEP NUMBER                  =           20
 CPU TIME [s]                 =    6.5250359475612640E-003   1.3971692882478237E-002

 *******************************************************************************
 ENSEMBLE TYPE                =                                              NVE
 STEP NUMBER                  =                                               20
 TIME [fs]                    =                                         2.000000
 CONSERVED QUANTITY [hartree] =                               0.487839672341E+00

                                              INSTANTANEOUS             AVERAGES
 CPU TIME [s]                 =                        0.01                 0.01
 ENERGY DRIFT PER ATOM [K]    =         -0.207103298792E+00  -0.879078443042E-01
 POTENTIAL ENERGY[hartree]    =          0.253367377957E+00   0.389869660914E+00
 KINETIC ENERGY [hartree]     =          0.234472294383E+00   0.980635927999E-01
 TEMPERATURE [K]              =                     199.839               83.579
 *******************************************************************************

 FOBSH| Put former active state           1 in new active state           1
 RANDOM_NUMBER_HOPPING_PROBA  0.13711736898878887     
 FOBSH| ACTIVE STATE =            1

 ENERGY| Total FORCE_EVAL ( MIXED ) energy (a.u.):             0.239844555201744

 FOBSH| CASE1: no hop and no trivial crossing
 ENTER integrator.F
 STEP NUMBER                  =           21
 CPU TIME [s]                 =    1.9713874906301498E-002   1.4245130121707916E-002

 *******************************************************************************
 ENSEMBLE TYPE                =                                              NVE
 STEP NUMBER                  =                                               21
 TIME [fs]                    =                                         2.100000
 CONSERVED QUANTITY [hartree] =                               0.487831056794E+00

                                              INSTANTANEOUS             AVERAGES
 CPU TIME [s]                 =                        0.02                 0.01
 ENERGY DRIFT PER ATOM [K]    =         -0.218073343894E+00  -0.941062014276E-01
 POTENTIAL ENERGY[hartree]    =          0.239844555202E+00   0.382725608261E+00
 KINETIC ENERGY [hartree]     =          0.247986501592E+00   0.105202778933E+00
 TEMPERATURE [K]              =                     211.357               89.664
 *******************************************************************************

 FOBSH| Put former active state           1 in new active state           1
 RANDOM_NUMBER_HOPPING_PROBA  0.69442558648076891     
 FOBSH| ACTIVE STATE =            1

 ENERGY| Total FORCE_EVAL ( MIXED ) energy (a.u.):             0.227323958960130

 FOBSH| CASE1: no hop and no trivial crossing
 ENTER integrator.F
 STEP NUMBER                  =           22
 CPU TIME [s]                 =    6.4862929284572601E-003   1.3892455703832888E-002

 *******************************************************************************
 ENSEMBLE TYPE                =                                              NVE
 STEP NUMBER                  =                                               22
 TIME [fs]                    =                                         2.200000
 CONSERVED QUANTITY [hartree] =                               0.487823282626E+00

                                              INSTANTANEOUS             AVERAGES
 CPU TIME [s]                 =                        0.01                 0.01
 ENERGY DRIFT PER ATOM [K]    =         -0.227972074481E+00  -0.100191013839E+00
 POTENTIAL ENERGY[hartree]    =          0.227323958960E+00   0.375661896929E+00
 KINETIC ENERGY [hartree]     =          0.260499323666E+00   0.112261712784E+00
 TEMPERATURE [K]              =                     222.022               95.680
 *******************************************************************************

 FOBSH| Put former active state           1 in new active state           1
 RANDOM_NUMBER_HOPPING_PROBA  0.43357591614681079     
 FOBSH| ACTIVE STATE =            1

 ENERGY| Total FORCE_EVAL ( MIXED ) energy (a.u.):             0.215930105211217

 FOBSH| CASE1: no hop and no trivial crossing
 ENTER integrator.F
 STEP NUMBER                  =           23
 CPU TIME [s]                 =    1.9726827740669250E-002   1.4146124053260553E-002

 *******************************************************************************
 ENSEMBLE TYPE                =                                              NVE
 STEP NUMBER                  =                                               23
 TIME [fs]                    =                                         2.300000
 CONSERVED QUANTITY [hartree] =                               0.487816441500E+00

                                              INSTANTANEOUS             AVERAGES
 CPU TIME [s]                 =                        0.02                 0.01
 ENERGY DRIFT PER ATOM [K]    =         -0.236682776000E+00  -0.106125438281E+00
 POTENTIAL ENERGY[hartree]    =          0.215930105211E+00   0.368717036420E+00
 KINETIC ENERGY [hartree]     =          0.271886336289E+00   0.119201913806E+00
 TEMPERATURE [K]              =                     231.727              101.595
 *******************************************************************************

 FOBSH| Put former active state           1 in new active state           1
 RANDOM_NUMBER_HOPPING_PROBA  0.42556539446059666     
 FOBSH| ACTIVE STATE =            1

 ENERGY| Total FORCE_EVAL ( MIXED ) energy (a.u.):             0.205772617273439

 FOBSH| CASE1: no hop and no trivial crossing
 ENTER integrator.F
 STEP NUMBER                  =           24
 CPU TIME [s]                 =    1.9477458670735359E-002   1.4368262995655337E-002

 *******************************************************************************
 ENSEMBLE TYPE                =                                              NVE
 STEP NUMBER                  =                                               24
 TIME [fs]                    =                                         2.400000
 CONSERVED QUANTITY [hartree] =                               0.487810612915E+00

                                              INSTANTANEOUS             AVERAGES
 CPU TIME [s]                 =                        0.02                 0.01
 ENERGY DRIFT PER ATOM [K]    =         -0.244104225914E+00  -0.111874554432E+00
 POTENTIAL ENERGY[hartree]    =          0.205772617273E+00   0.361927685622E+00
 KINETIC ENERGY [hartree]     =          0.282037995641E+00   0.125986750549E+00
 TEMPERATURE [K]              =                     240.379              107.378
 *******************************************************************************

 FOBSH| Put former active state           1 in new active state           1
 RANDOM_NUMBER_HOPPING_PROBA  0.22755703896560339     
 FOBSH| ACTIVE STATE =            1

 ENERGY| Total FORCE_EVAL ( MIXED ) energy (a.u.):             0.196944955184170

 FOBSH| CASE1: no hop and no trivial crossing
 ENTER integrator.F
 STEP NUMBER                  =           25
 CPU TIME [s]                 =    6.8957973271608353E-003   1.4069364368915559E-002

 *******************************************************************************
 ENSEMBLE TYPE                =                                              NVE
 STEP NUMBER                  =                                               25
 TIME [fs]                    =                                         2.500000
 CONSERVED QUANTITY [hartree] =                               0.487805863413E+00

                                              INSTANTANEOUS             AVERAGES
 CPU TIME [s]                 =                        0.01                 0.01
 ENERGY DRIFT PER ATOM [K]    =         -0.250151695224E+00  -0.117405640064E+00
 POTENTIAL ENERGY[hartree]    =          0.196944955184E+00   0.355328376404E+00
 KINETIC ENERGY [hartree]     =          0.290860908228E+00   0.132581716857E+00
 TEMPERATURE [K]              =                     247.899              112.999
 *******************************************************************************

 FOBSH| Put former active state           1 in new active state           1
 RANDOM_NUMBER_HOPPING_PROBA  0.57608685498732748     
 FOBSH| ACTIVE STATE =            1

 ENERGY| Total FORCE_EVAL ( MIXED ) energy (a.u.):             0.189523351958524

 FOBSH| CASE1: no hop and no trivial crossing
 ENTER integrator.F
 STEP NUMBER                  =           26
 CPU TIME [s]                 =    1.9114771857857704E-002   1.4263418503105640E-002

 *******************************************************************************
 ENSEMBLE TYPE                =                                              NVE
 STEP NUMBER                  =                                               26
 TIME [fs]                    =                                         2.600000
 CONSERVED QUANTITY [hartree] =                               0.487802245792E+00

                                              INSTANTANEOUS             AVERAGES
 CPU TIME [s]                 =                        0.02                 0.01
 ENERGY DRIFT PER ATOM [K]    =         -0.254757956332E+00  -0.122688421459E+00
 POTENTIAL ENERGY[hartree]    =          0.189523351959E+00   0.348951260080E+00
 KINETIC ENERGY [hartree]     =          0.298278893834E+00   0.138954685202E+00
 TEMPERATURE [K]              =                     254.221              118.430
 *******************************************************************************

 FOBSH| Put former active state           1 in new active state           1
 RANDOM_NUMBER_HOPPING_PROBA  0.53284480325684869     
 FOBSH| ACTIVE STATE =            1

 ENERGY| Total FORCE_EVAL ( MIXED ) energy (a.u.):             0.183565969525817

 FOBSH| CASE1: no hop and no trivial crossing
 ENTER integrator.F
 STEP NUMBER                  =           27
 CPU TIME [s]                 =    6.4549278467893600E-003   1.3974215145464297E-002

 *******************************************************************************
 ENSEMBLE TYPE                =                                              NVE
 STEP NUMBER                  =                                               27
 TIME [fs]                    =                                         2.700000
 CONSERVED QUANTITY [hartree] =                               0.487799798434E+00

                                              INSTANTANEOUS             AVERAGES
 CPU TIME [s]                 =                        0.01                 0.01
 ENERGY DRIFT PER ATOM [K]    =         -0.257874140361E+00  -0.127695299937E+00
 POTENTIAL ENERGY[hartree]    =          0.183565969526E+00   0.342825878948E+00
 KINETIC ENERGY [hartree]     =          0.304233828908E+00   0.145076134969E+00
 TEMPERATURE [K]              =                     259.296              123.647
 *******************************************************************************

 FOBSH| Put former active state           1 in new active state           1
 RANDOM_NUMBER_HOPPING_PROBA  0.33057430637056379     
 FOBSH| ACTIVE STATE =            1

 ENERGY| Total FORCE_EVAL ( MIXED ) energy (a.u.):             0.179112285037087

 FOBSH| CASE1: no hop and no trivial crossing
 ENTER integrator.F
 STEP NUMBER                  =           28
 CPU TIME [s]                 =    1.9542671740055084E-002   1.4173088595271111E-002

 *******************************************************************************
 ENSEMBLE TYPE                =                                              NVE
 STEP NUMBER                  =                                               28
 TIME [fs]                    =                                         2.800000
 CONSERVED QUANTITY [hartree] =                               0.487798545487E+00

                                              INSTANTANEOUS             AVERAGES
 CPU TIME [s]                 =                        0.02                 0.01
 ENERGY DRIFT PER ATOM [K]    =         -0.259469499130E+00  -0.132401521336E+00
 POTENTIAL ENERGY[hartree]    =          0.179112285037E+00   0.336978964880E+00
 KINETIC ENERGY [hartree]     =          0.308686260450E+00   0.150919353736E+00
 TEMPERATURE [K]              =                     263.091              128.628
 *******************************************************************************

 FOBSH| Put former active state           1 in new active state           1
 RANDOM_NUMBER_HOPPING_PROBA  0.11746379161078220     
 FOBSH| ACTIVE STATE =            1

 ENERGY| Total FORCE_EVAL ( MIXED ) energy (a.u.):             0.176182715526903

 FOBSH| CASE1: no hop and no trivial crossing
 ENTER integrator.F
 STEP NUMBER                  =           29
 CPU TIME [s]                 =    6.2265638262033463E-003   1.3899070499786016E-002

 *******************************************************************************
 ENSEMBLE TYPE                =                                              NVE
 STEP NUMBER                  =                                               29
 TIME [fs]                    =                                         2.900000
 CONSERVED QUANTITY [hartree] =                               0.487798493274E+00

                                              INSTANTANEOUS             AVERAGES
 CPU TIME [s]                 =                        0.01                 0.01
 ENERGY DRIFT PER ATOM [K]    =         -0.259535981662E+00  -0.136785468244E+00
 POTENTIAL ENERGY[hartree]    =          0.176182715527E+00   0.331434266626E+00
 KINETIC ENERGY [hartree]     =          0.311615777747E+00   0.156460609736E+00
 TEMPERATURE [K]              =                     265.588              133.350
 *******************************************************************************

 FOBSH| Put former active state           1 in new active state           1
 RANDOM_NUMBER_HOPPING_PROBA  0.77128416612444139     
 FOBSH| ACTIVE STATE =            1

 ENERGY| Total FORCE_EVAL ( MIXED ) energy (a.u.):             0.174778489757786

 FOBSH| CASE1: no hop and no trivial crossing
 ENTER integrator.F
 STEP NUMBER                  =           30
 CPU TIME [s]                 =    1.9089085981249809E-002   1.4072071015834808E-002

 *******************************************************************************
 ENSEMBLE TYPE                =                                              NVE
 STEP NUMBER                  =                                               30
 TIME [fs]                    =                                         3.000000
 CONSERVED QUANTITY [hartree] =                               0.487799636345E+00

                                              INSTANTANEOUS             AVERAGES
 CPU TIME [s]                 =                        0.02                 0.01
 ENERGY DRIFT PER ATOM [K]    =         -0.258080526091E+00  -0.140828636839E+00
 POTENTIAL ENERGY[hartree]    =          0.174778489758E+00   0.326212407397E+00
 KINETIC ENERGY [hartree]     =          0.313021146587E+00   0.161679294298E+00
 TEMPERATURE [K]              =                     266.786              137.798
 *******************************************************************************

 FOBSH| Put former active state           1 in new active state           1
 RANDOM_NUMBER_HOPPING_PROBA  0.11123223070434854     
 FOBSH| ACTIVE STATE =            1

 ENERGY| Total FORCE_EVAL ( MIXED ) energy (a.u.):             0.174881747990734

 FOBSH| CASE1: no hop and no trivial crossing
 ENTER integrator.F
 STEP NUMBER                  =           31
 CPU TIME [s]                 =    6.7455824464559555E-003   1.3835732674887103E-002

 *******************************************************************************
 ENSEMBLE TYPE                =                                              NVE
 STEP NUMBER                  =                                               31
 TIME [fs]                    =                                         3.100000
 CONSERVED QUANTITY [hartree] =                               0.487801952697E+00

                                              INSTANTANEOUS             AVERAGES
 CPU TIME [s]                 =                        0.01                 0.01
 ENERGY DRIFT PER ATOM [K]    =         -0.255131150806E+00  -0.144515814709E+00
 POTENTIAL ENERGY[hartree]    =          0.174881747991E+00   0.321330773223E+00
 KINETIC ENERGY [hartree]     =          0.312920204706E+00   0.166558033343E+00
 TEMPERATURE [K]              =                     266.700              141.956
 *******************************************************************************

 FOBSH| Put former active state           1 in new active state           1
 RANDOM_NUMBER_HOPPING_PROBA  0.52006523385028558     
 FOBSH| ACTIVE STATE =            1

 ENERGY| Total FORCE_EVAL ( MIXED ) energy (a.u.):             0.176455893058122

 FOBSH| CASE1: no hop and no trivial crossing
 ENTER integrator.F
 STEP NUMBER                  =           32
 CPU TIME [s]                 =    5.7693701237440109E-003   1.3583658845163882E-002

 *******************************************************************************
 ENSEMBLE TYPE                =                                              NVE
 STEP NUMBER                  =                                               32
 TIME [fs]                    =                                         3.200000
 CONSERVED QUANTITY [hartree] =                               0.487805405839E+00

                                              INSTANTANEOUS             AVERAGES
 CPU TIME [s]                 =                        0.01                 0.01
 ENERGY DRIFT PER ATOM [K]    =         -0.250734317297E+00  -0.147835142915E+00
 POTENTIAL ENERGY[hartree]    =          0.176455893058E+00   0.316803433218E+00
 KINETIC ENERGY [hartree]     =          0.311349512780E+00   0.171082767076E+00
 TEMPERATURE [K]              =                     265.361              145.813
 *******************************************************************************

 FOBSH| Put former active state           1 in new active state           1
 RANDOM_NUMBER_HOPPING_PROBA  0.73289104701050978     
 FOBSH| ACTIVE STATE =            1

 ENERGY| Total FORCE_EVAL ( MIXED ) energy (a.u.):             0.179446174293428

 FOBSH| CASE1: no hop and no trivial crossing
 ENTER integrator.F
 STEP NUMBER                  =           33
 CPU TIME [s]                 =    1.9593821838498116E-002   1.3765784996477041E-002

 *******************************************************************************
 ENSEMBLE TYPE                =                                              NVE
 STEP NUMBER                  =                                               33
 TIME [fs]                    =                                         3.300000
 CONSERVED QUANTITY [hartree] =                               0.487809944319E+00

                                              INSTANTANEOUS             AVERAGES
 CPU TIME [s]                 =                        0.02                 0.01
 ENERGY DRIFT PER ATOM [K]    =         -0.244955538692E+00  -0.150778185211E+00
 POTENTIAL ENERGY[hartree]    =          0.179446174293E+00   0.312641092038E+00
 KINETIC ENERGY [hartree]     =          0.308363770026E+00   0.175242797468E+00
 TEMPERATURE [K]              =                     262.816              149.358
 *******************************************************************************

 FOBSH| Put former active state           1 in new active state           1
 RANDOM_NUMBER_HOPPING_PROBA  0.14878337503106848     
 FOBSH| ACTIVE STATE =            1

 ENERGY| Total FORCE_EVAL ( MIXED ) energy (a.u.):             0.183780502571226

 FOBSH| CASE1: no hop and no trivial crossing
 ENTER integrator.F
 STEP NUMBER                  =           34
 CPU TIME [s]                 =    5.9686992317438126E-003   1.3536458944573122E-002

 *******************************************************************************
 ENSEMBLE TYPE                =                                              NVE
 STEP NUMBER                  =                                               34
 TIME [fs]                    =                                         3.400000
 CONSERVED QUANTITY [hartree] =                               0.487815503690E+00

                                              INSTANTANEOUS             AVERAGES
 CPU TIME [s]                 =                        0.01                 0.01
 ENERGY DRIFT PER ATOM [K]    =         -0.237876876012E+00  -0.153339911411E+00
 POTENTIAL ENERGY[hartree]    =          0.183780502571E+00   0.308851074701E+00
 KINETIC ENERGY [hartree]     =          0.304035001119E+00   0.179030803458E+00
 TEMPERATURE [K]              =                     259.127              152.587
 *******************************************************************************

 FOBSH| Put former active state           1 in new active state           1
 RANDOM_NUMBER_HOPPING_PROBA  0.70792872161818077     
 FOBSH| ACTIVE STATE =            1

 ENERGY| Total FORCE_EVAL ( MIXED ) energy (a.u.):             0.189370480278316

 FOBSH| CASE1: no hop and no trivial crossing
 ENTER integrator.F
 STEP NUMBER                  =           35
 CPU TIME [s]                 =    1.9573852419853210E-002   1.3708955901009696E-002

 *******************************************************************************
 ENSEMBLE TYPE                =                                              NVE
 STEP NUMBER                  =                                               35
 TIME [fs]                    =                                         3.500000
 CONSERVED QUANTITY [hartree] =                               0.487822006512E+00

                                              INSTANTANEOUS             AVERAGES
 CPU TIME [s]                 =                        0.02                 0.01
 ENERGY DRIFT PER ATOM [K]    =         -0.229596930529E+00  -0.155518683386E+00
 POTENTIAL ENERGY[hartree]    =          0.189370480278E+00   0.305437343432E+00
 KINETIC ENERGY [hartree]     =          0.298451526234E+00   0.182442824109E+00
 TEMPERATURE [K]              =                     254.368              155.495
 *******************************************************************************

 FOBSH| Put former active state           1 in new active state           1
 RANDOM_NUMBER_HOPPING_PROBA  0.57368060162420509     
 FOBSH| ACTIVE STATE =            1

 ENERGY| Total FORCE_EVAL ( MIXED ) energy (a.u.):             0.196112636983179

 FOBSH| CASE1: no hop and no trivial crossing
 ENTER integrator.F
 STEP NUMBER                  =           36
 CPU TIME [s]                 =    6.0810931026935577E-003   1.3497070823278692E-002

 *******************************************************************************
 ENSEMBLE TYPE                =                                              NVE
 STEP NUMBER                  =                                               36
 TIME [fs]                    =                                         3.600000
 CONSERVED QUANTITY [hartree] =                               0.487829363580E+00

                                              INSTANTANEOUS             AVERAGES
 CPU TIME [s]                 =                        0.01                 0.01
 ENERGY DRIFT PER ATOM [K]    =         -0.220229287867E+00  -0.157316200177E+00
 POTENTIAL ENERGY[hartree]    =          0.196112636983E+00   0.302400546030E+00
 KINETIC ENERGY [hartree]     =          0.291716726597E+00   0.185478210289E+00
 TEMPERATURE [K]              =                     248.628              158.082
 *******************************************************************************

 FOBSH| Put former active state           1 in new active state           1
 RANDOM_NUMBER_HOPPING_PROBA  0.98690830503518878     
 FOBSH| ACTIVE STATE =            1

 ENERGY| Total FORCE_EVAL ( MIXED ) energy (a.u.):             0.203889852393514

 FOBSH| CASE1: no hop and no trivial crossing
 ENTER integrator.F
 STEP NUMBER                  =           37
 CPU TIME [s]                 =    1.8581779673695564E-002   1.3634495386803473E-002

 *******************************************************************************
 ENSEMBLE TYPE                =                                              NVE
 STEP NUMBER                  =                                               37
 TIME [fs]                    =                                         3.700000
 CONSERVED QUANTITY [hartree] =                               0.487837475038E+00

                                              INSTANTANEOUS             AVERAGES
 CPU TIME [s]                 =                        0.02                 0.01
 ENERGY DRIFT PER ATOM [K]    =         -0.209901090871E+00  -0.158737413439E+00
 POTENTIAL ENERGY[hartree]    =          0.203889852394E+00   0.299738094851E+00
 KINETIC ENERGY [hartree]     =          0.283947622644E+00   0.188139545758E+00
 TEMPERATURE [K]              =                     242.007              160.350
 *******************************************************************************

 FOBSH| Put former active state           1 in new active state           1
 RANDOM_NUMBER_HOPPING_PROBA   3.4208860275205914E-002
 FOBSH| ACTIVE STATE =            1

 ENERGY| Total FORCE_EVAL ( MIXED ) energy (a.u.):             0.212572949066251

 FOBSH| CASE1: no hop and no trivial crossing
 ENTER integrator.F
 STEP NUMBER                  =           38
 CPU TIME [s]                 =    6.0416627675294876E-003   1.3434684002085735E-002

 *******************************************************************************
 ENSEMBLE TYPE                =                                              NVE
 STEP NUMBER                  =                                               38
 TIME [fs]                    =                                         3.800000
 CONSERVED QUANTITY [hartree] =                               0.487846231813E+00

                                              INSTANTANEOUS             AVERAGES
 CPU TIME [s]                 =                        0.01                 0.01
 ENERGY DRIFT PER ATOM [K]    =         -0.198751221343E+00  -0.159790408384E+00
 POTENTIAL ENERGY[hartree]    =          0.212572949066E+00   0.297444275225E+00
 KINETIC ENERGY [hartree]     =          0.275273282747E+00   0.190432538837E+00
 TEMPERATURE [K]              =                     234.614              162.304
 *******************************************************************************

 FOBSH| Put former active state           1 in new active state           1
 RANDOM_NUMBER_HOPPING_PROBA  0.80751924681570464     
 FOBSH| ACTIVE STATE =            1

 ENERGY| Total FORCE_EVAL ( MIXED ) energy (a.u.):             0.222022433861406

 FOBSH| CASE1: no hop and no trivial crossing
 ENTER integrator.F
 STEP NUMBER                  =           39
 CPU TIME [s]                 =    1.9650254398584366E-002   1.3594057601995956E-002

 *******************************************************************************
 ENSEMBLE TYPE                =                                              NVE
 STEP NUMBER                  =                                               39
 TIME [fs]                    =                                         3.900000
 CONSERVED QUANTITY [hartree] =                               0.487855516857E+00

                                              INSTANTANEOUS             AVERAGES
 CPU TIME [s]                 =                        0.02                 0.01
 ENERGY DRIFT PER ATOM [K]    =         -0.186928715429E+00  -0.160486262411E+00
 POTENTIAL ENERGY[hartree]    =          0.222022433861E+00   0.295510381857E+00
 KINETIC ENERGY [hartree]     =          0.265833082996E+00   0.192365886123E+00
 TEMPERATURE [K]              =                     226.568              163.952
 *******************************************************************************

 FOBSH| New map:            1           2           3           0           0           6           7           8           9          10          11          12
 FOBSH! New map again:           1           2           3           0           0           6           7           8           9          10          11          12
 FOBSH| Put former active state           1 in new active state           1
 RANDOM_NUMBER_HOPPING_PROBA  0.21295495361430347     
 FOBSH| ACTIVE STATE =            1

 ENERGY| Total FORCE_EVAL ( MIXED ) energy (a.u.):             0.232090365162624

 FOBSH| CASE1: no hop and no trivial crossing
 ENTER integrator.F
 STEP NUMBER                  =           40
 CPU TIME [s]                 =    6.2897056341171265E-003   1.3411448802798986E-002

 *******************************************************************************
 ENSEMBLE TYPE                =                                              NVE
 STEP NUMBER                  =                                               40
 TIME [fs]                    =                                         4.000000
 CONSERVED QUANTITY [hartree] =                               0.487865206715E+00

                                              INSTANTANEOUS             AVERAGES
 CPU TIME [s]                 =                        0.01                 0.01
 ENERGY DRIFT PER ATOM [K]    =         -0.174590765833E+00  -0.160838874996E+00
 POTENTIAL ENERGY[hartree]    =          0.232090365163E+00   0.293924881439E+00
 KINETIC ENERGY [hartree]     =          0.255774841553E+00   0.193951110009E+00
 TEMPERATURE [K]              =                     217.995              165.303
 *******************************************************************************

 FOBSH| New map:            1           2           3           0           0           6           7           8           9          10          11          12
 FOBSH! New map again:           1           2           3           0           0           6           7           8           9          10          11          12
 FOBSH| Put former active state           1 in new active state           1
 RANDOM_NUMBER_HOPPING_PROBA  0.30303557823211896     
 FOBSH| ACTIVE STATE =            1

 ENERGY| Total FORCE_EVAL ( MIXED ) energy (a.u.):             0.242622322200321

 FOBSH| CASE1: no hop and no trivial crossing
 ENTER integrator.F
 STEP NUMBER                  =           41
 CPU TIME [s]                 =    2.0690584555268288E-002   1.3588988699200678E-002

 *******************************************************************************
 ENSEMBLE TYPE                =                                              NVE
 STEP NUMBER                  =                                               41
 TIME [fs]                    =                                         4.100000
 CONSERVED QUANTITY [hartree] =                               0.487875173164E+00

                                              INSTANTANEOUS             AVERAGES
 CPU TIME [s]                 =                        0.02                 0.01
 ENERGY DRIFT PER ATOM [K]    =         -0.161900637959E+00  -0.160864771654E+00
 POTENTIAL ENERGY[hartree]    =          0.242622322200E+00   0.292673599507E+00
 KINETIC ENERGY [hartree]     =          0.245252850963E+00   0.195202371983E+00
 TEMPERATURE [K]              =                     209.027              166.370
 *******************************************************************************

 FOBSH| Put former active state           1 in new active state           1
 RANDOM_NUMBER_HOPPING_PROBA  0.73286587941369585     
 FOBSH| ACTIVE STATE =            1

 ENERGY| Total FORCE_EVAL ( MIXED ) energy (a.u.):             0.253459451246950

 FOBSH| CASE1: no hop and no trivial crossing
 ENTER integrator.F
 STEP NUMBER                  =           42
 CPU TIME [s]                 =    6.4537208527326584E-003   1.3419101369522866E-002

 *******************************************************************************
 ENSEMBLE TYPE                =                                              NVE
 STEP NUMBER                  =                                               42
 TIME [fs]                    =                                         4.200000
 CONSERVED QUANTITY [hartree] =                               0.487885284846E+00

                                              INSTANTANEOUS             AVERAGES
 CPU TIME [s]                 =                        0.01                 0.01
 ENERGY DRIFT PER ATOM [K]    =         -0.149025585952E+00  -0.160582886280E+00
 POTENTIAL ENERGY[hartree]    =          0.253459451247E+00   0.291739929310E+00
 KINETIC ENERGY [hartree]     =          0.234425833599E+00   0.196136263926E+00
 TEMPERATURE [K]              =                     199.800              167.166
 *******************************************************************************

 FOBSH| Put former active state           1 in new active state           1
 RANDOM_NUMBER_HOPPING_PROBA  0.14662496710615075     
 FOBSH| ACTIVE STATE =            1

 ENERGY| Total FORCE_EVAL ( MIXED ) energy (a.u.):             0.264440561970201

 FOBSH| CASE1: no hop and no trivial crossing
 ENTER integrator.F
 STEP NUMBER                  =           43
 CPU TIME [s]                 =    1.9568415358662605E-002   1.3562108671595883E-002

 *******************************************************************************
 ENSEMBLE TYPE                =                                              NVE
 STEP NUMBER                  =                                               43
 TIME [fs]                    =                                         4.300000
 CONSERVED QUANTITY [hartree] =                               0.487895408883E+00

                                              INSTANTANEOUS             AVERAGES
 CPU TIME [s]                 =                        0.02                 0.01
 ENERGY DRIFT PER ATOM [K]    =         -0.136134802280E+00  -0.160014326187E+00
 POTENTIAL ENERGY[hartree]    =          0.264440561970E+00   0.291105060302E+00
 KINETIC ENERGY [hartree]     =          0.223454846913E+00   0.196771579810E+00
 TEMPERATURE [K]              =                     190.449              167.707
 *******************************************************************************

 FOBSH| Reordering: for state           9 old index was          10 with overlap  0.99999712949559638      and former   0.0000000000000000     
 FOBSH| Reordering: for state          10 old index was           9 with overlap -0.99999731133873049      and former   0.0000000000000000     
 FOBSH| New map:            1           2           3           4           5           6           7           8          10           9          11          12
 FOBSH| Put former active state           1 in new active state           1
 RANDOM_NUMBER_HOPPING_PROBA  0.99741585610026928     
 FOBSH| ACTIVE STATE =            1

 ENERGY| Total FORCE_EVAL ( MIXED ) energy (a.u.):             0.275404247676482

 FOBSH| CASE1: no hop and no trivial crossing
 ENTER integrator.F
 STEP NUMBER                  =           44
 CPU TIME [s]                 =    6.4944494515657425E-003   1.3401480052958836E-002

 *******************************************************************************
 ENSEMBLE TYPE                =                                              NVE
 STEP NUMBER                  =                                               44
 TIME [fs]                    =                                         4.400000
 CONSERVED QUANTITY [hartree] =                               0.487905412501E+00

                                              INSTANTANEOUS             AVERAGES
 CPU TIME [s]                 =                        0.01                 0.01
 ENERGY DRIFT PER ATOM [K]    =         -0.123397346509E+00  -0.159182122103E+00
 POTENTIAL ENERGY[hartree]    =          0.275404247676E+00   0.290748223652E+00
 KINETIC ENERGY [hartree]     =          0.212501164825E+00   0.197129070378E+00
 TEMPERATURE [K]              =                     181.113              168.012
 *******************************************************************************

 FOBSH| Put former active state           1 in new active state           1
 RANDOM_NUMBER_HOPPING_PROBA   2.6465029340406440E-002
 FOBSH| ACTIVE STATE =            1

 ENERGY| Total FORCE_EVAL ( MIXED ) energy (a.u.):             0.286191004633990

 FOBSH| CASE1: no hop and no trivial crossing
 ENTER integrator.F
 STEP NUMBER                  =           45
 CPU TIME [s]                 =    1.9422650337219238E-002   1.3535283837053512E-002

 *******************************************************************************
 ENSEMBLE TYPE                =                                              NVE
 STEP NUMBER                  =                                               45
 TIME [fs]                    =                                         4.500000
 CONSERVED QUANTITY [hartree] =                               0.487915164567E+00

                                              INSTANTANEOUS             AVERAGES
 CPU TIME [s]                 =                        0.02                 0.01
 ENERGY DRIFT PER ATOM [K]    =         -0.110980188569E+00  -0.158110968025E+00
 POTENTIAL ENERGY[hartree]    =          0.286191004634E+00   0.290646952118E+00
 KINETIC ENERGY [hartree]     =          0.201724159933E+00   0.197231183479E+00
 TEMPERATURE [K]              =                     171.928              168.099
 *******************************************************************************

 FOBSH| Put former active state           1 in new active state           1
 RANDOM_NUMBER_HOPPING_PROBA  0.11181750759902448     
 FOBSH| ACTIVE STATE =            1

 ENERGY| Total FORCE_EVAL ( MIXED ) energy (a.u.):             0.296645319321406

 FOBSH| CASE1: no hop and no trivial crossing
 ENTER integrator.F
 STEP NUMBER                  =           46
 CPU TIME [s]                 =    6.2287375330924988E-003   1.3376445873923924E-002

 *******************************************************************************
 ENSEMBLE TYPE                =                                              NVE
 STEP NUMBER                  =                                               46
 TIME [fs]                    =                                         4.600000
 CONSERVED QUANTITY [hartree] =                               0.487924538748E+00

                                              INSTANTANEOUS             AVERAGES
 CPU TIME [s]                 =                        0.01                 0.01
 ENERGY DRIFT PER ATOM [K]    =         -0.990441859811E-01  -0.156826907546E+00
 POTENTIAL ENERGY[hartree]    =          0.296645319321E+00   0.290777351405E+00
 KINETIC ENERGY [hartree]     =          0.191279219427E+00   0.197101792957E+00
 TEMPERATURE [K]              =                     163.026              167.989
 *******************************************************************************

 FOBSH| Put former active state           1 in new active state           1
 RANDOM_NUMBER_HOPPING_PROBA  0.29995809783956140     
 FOBSH| ACTIVE STATE =            1

 ENERGY| Total FORCE_EVAL ( MIXED ) energy (a.u.):             0.306617690215933

 FOBSH| CASE1: no hop and no trivial crossing
 ENTER integrator.F
 STEP NUMBER                  =           47
 CPU TIME [s]                 =    1.9573474302887917E-002   1.3508297542625286E-002

 *******************************************************************************
 ENSEMBLE TYPE                =                                              NVE
 STEP NUMBER                  =                                               47
 TIME [fs]                    =                                         4.700000
 CONSERVED QUANTITY [hartree] =                               0.487933413237E+00

                                              INSTANTANEOUS             AVERAGES
 CPU TIME [s]                 =                        0.02                 0.01
 ENERGY DRIFT PER ATOM [K]    =         -0.877444338569E-01  -0.155357067680E+00
 POTENTIAL ENERGY[hartree]    =          0.306617690216E+00   0.291114379890E+00
 KINETIC ENERGY [hartree]     =          0.181315723021E+00   0.196765919128E+00
 TEMPERATURE [K]              =                     154.534              167.702
 *******************************************************************************

 FOBSH| Put former active state           1 in new active state           1
 RANDOM_NUMBER_HOPPING_PROBA  0.49850457410536514     
 FOBSH| ACTIVE STATE =            1

 ENERGY| Total FORCE_EVAL ( MIXED ) energy (a.u.):             0.315966570557133

 FOBSH| CASE1: no hop and no trivial crossing
 ENTER integrator.F
 STEP NUMBER                  =           48
 CPU TIME [s]                 =    5.9856846928596497E-003   1.3351576441588501E-002

 *******************************************************************************
 ENSEMBLE TYPE                =                                              NVE
 STEP NUMBER                  =                                               48
 TIME [fs]                    =                                         4.800000
 CONSERVED QUANTITY [hartree] =                               0.487941672930E+00

                                              INSTANTANEOUS             AVERAGES
 CPU TIME [s]                 =                        0.01                 0.01
 ENERGY DRIFT PER ATOM [K]    =         -0.772274914843E-01  -0.153729368176E+00
 POTENTIAL ENERGY[hartree]    =          0.315966570557E+00   0.291632133862E+00
 KINETIC ENERGY [hartree]     =          0.171975102373E+00   0.196249443779E+00
 TEMPERATURE [K]              =                     146.573              167.262
 *******************************************************************************

 FOBSH| Put former active state           1 in new active state           1
 RANDOM_NUMBER_HOPPING_PROBA  0.10893752650800291     
 FOBSH| ACTIVE STATE =            1

 ENERGY| Total FORCE_EVAL ( MIXED ) energy (a.u.):             0.324560204515094

 FOBSH| CASE1: no hop and no trivial crossing
 ENTER integrator.F
 STEP NUMBER                  =           49
 CPU TIME [s]                 =    1.9731575623154640E-002   1.3481780506518421E-002

 *******************************************************************************
 ENSEMBLE TYPE                =                                              NVE
 STEP NUMBER                  =                                               49
 TIME [fs]                    =                                         4.900000
 CONSERVED QUANTITY [hartree] =                               0.487949211325E+00

                                              INSTANTANEOUS             AVERAGES
 CPU TIME [s]                 =                        0.02                 0.01
 ENERGY DRIFT PER ATOM [K]    =         -0.676289675588E-01  -0.151972217143E+00
 POTENTIAL ENERGY[hartree]    =          0.324560204515E+00   0.292304135304E+00
 KINETIC ENERGY [hartree]     =          0.163389006810E+00   0.195578822616E+00
 TEMPERATURE [K]              =                     139.255              166.691
 *******************************************************************************

 FOBSH| Put former active state           1 in new active state           1
 RANDOM_NUMBER_HOPPING_PROBA  0.94848825533072401     
 FOBSH| ACTIVE STATE =            1

 ENERGY| Total FORCE_EVAL ( MIXED ) energy (a.u.):             0.332278329231650

 FOBSH| CASE1: no hop and no trivial crossing
 ENTER integrator.F
 STEP NUMBER                  =           50
 CPU TIME [s]                 =    6.4650978893041611E-003   1.3341446854174138E-002

 *******************************************************************************
 ENSEMBLE TYPE                =                                              NVE
[...]
 TIME [fs]                    =                                        19.000000
 CONSERVED QUANTITY [hartree] =                               0.487822911002E+00

                                              INSTANTANEOUS             AVERAGES
 CPU TIME [s]                 =                        0.01                 0.01
 ENERGY DRIFT PER ATOM [K]    =         -0.228445257653E+00  -0.135763289859E+00
 POTENTIAL ENERGY[hartree]    =          0.219024594339E+00   0.299926825821E+00
 KINETIC ENERGY [hartree]     =          0.268798316663E+00   0.187968871555E+00
 TEMPERATURE [K]              =                     229.095              160.205
 *******************************************************************************

 FOBSH| Put former active state           1 in new active state           1
 RANDOM_NUMBER_HOPPING_PROBA  0.46257257862368051     
 FOBSH| ACTIVE STATE =            1

 ENERGY| Total FORCE_EVAL ( MIXED ) energy (a.u.):             0.212371534202664

 FOBSH| CASE1: no hop and no trivial crossing
 ENTER integrator.F
 STEP NUMBER                  =          191
 CPU TIME [s]                 =    9.4727240502834320E-003   1.0662157927196061E-002

 *******************************************************************************
 ENSEMBLE TYPE                =                                              NVE
 STEP NUMBER                  =                                              191
 TIME [fs]                    =                                        19.100000
 CONSERVED QUANTITY [hartree] =                               0.487817702894E+00

                                              INSTANTANEOUS             AVERAGES
 CPU TIME [s]                 =                        0.01                 0.01
 ENERGY DRIFT PER ATOM [K]    =         -0.235076663014E+00  -0.136283255164E+00
 POTENTIAL ENERGY[hartree]    =          0.212371534203E+00   0.299468421153E+00
 KINETIC ENERGY [hartree]     =          0.275446168691E+00   0.188426867875E+00
 TEMPERATURE [K]              =                     234.761              160.595
 *******************************************************************************

 FOBSH| Put former active state           1 in new active state           1
 RANDOM_NUMBER_HOPPING_PROBA  0.85355390783846685     
 FOBSH| ACTIVE STATE =            1

 ENERGY| Total FORCE_EVAL ( MIXED ) energy (a.u.):             0.206932342412922

 FOBSH| CASE1: no hop and no trivial crossing
 ENTER integrator.F
 STEP NUMBER                  =          192
 CPU TIME [s]                 =    9.9589060992002487E-003   1.0658495157258582E-002

 *******************************************************************************
 ENSEMBLE TYPE                =                                              NVE
 STEP NUMBER                  =                                              192
 TIME [fs]                    =                                        19.200000
 CONSERVED QUANTITY [hartree] =                               0.487813512751E+00

                                              INSTANTANEOUS             AVERAGES
 CPU TIME [s]                 =                        0.01                 0.01
 ENERGY DRIFT PER ATOM [K]    =         -0.240411908546E+00  -0.136825591900E+00
 POTENTIAL ENERGY[hartree]    =          0.206932342413E+00   0.298986462409E+00
 KINETIC ENERGY [hartree]     =          0.280881170338E+00   0.188908400700E+00
 TEMPERATURE [K]              =                     239.393              161.005
 *******************************************************************************

 FOBSH| Put former active state           1 in new active state           1
 RANDOM_NUMBER_HOPPING_PROBA  0.62162719534208455     
 FOBSH| ACTIVE STATE =            1

 ENERGY| Total FORCE_EVAL ( MIXED ) energy (a.u.):             0.202773800109719

 FOBSH| CASE1: no hop and no trivial crossing
 ENTER integrator.F
 STEP NUMBER                  =          193
 CPU TIME [s]                 =    8.3806980401277542E-003   1.0646693099656867E-002

 *******************************************************************************
 ENSEMBLE TYPE                =                                              NVE
 STEP NUMBER                  =                                              193
 TIME [fs]                    =                                        19.300000
 CONSERVED QUANTITY [hartree] =                               0.487810394538E+00

                                              INSTANTANEOUS             AVERAGES
 CPU TIME [s]                 =                        0.01                 0.01
 ENERGY DRIFT PER ATOM [K]    =         -0.244382282349E+00  -0.137382880452E+00
 POTENTIAL ENERGY[hartree]    =          0.202773800110E+00   0.298487951205E+00
 KINETIC ENERGY [hartree]     =          0.285036594428E+00   0.189406474243E+00
 TEMPERATURE [K]              =                     242.935              161.430
 *******************************************************************************

 FOBSH| Put former active state           1 in new active state           1
 RANDOM_NUMBER_HOPPING_PROBA  0.13164870147195876     
 FOBSH| ACTIVE STATE =            1

 ENERGY| Total FORCE_EVAL ( MIXED ) energy (a.u.):             0.199945575290752

 FOBSH| CASE1: no hop and no trivial crossing
 ENTER integrator.F
 STEP NUMBER                  =          194
 CPU TIME [s]                 =    9.0131163597106934E-003   1.0638272600997350E-002

 *******************************************************************************
 ENSEMBLE TYPE                =                                              NVE
 STEP NUMBER                  =                                              194
 TIME [fs]                    =                                        19.400000
 CONSERVED QUANTITY [hartree] =                               0.487808385811E+00

                                              INSTANTANEOUS             AVERAGES
 CPU TIME [s]                 =                        0.01                 0.01
 ENERGY DRIFT PER ATOM [K]    =         -0.246939963168E+00  -0.137947607682E+00
 POTENTIAL ENERGY[hartree]    =          0.199945575291E+00   0.297980000814E+00
 KINETIC ENERGY [hartree]     =          0.287862810520E+00   0.189913981131E+00
 TEMPERATURE [K]              =                     245.344              161.862
 *******************************************************************************

 FOBSH| Put former active state           1 in new active state           1
 RANDOM_NUMBER_HOPPING_PROBA  0.33531674969612718     
 FOBSH| ACTIVE STATE =            1

 ENERGY| Total FORCE_EVAL ( MIXED ) energy (a.u.):             0.198479608225932

 FOBSH| CASE1: no hop and no trivial crossing
 ENTER integrator.F
 STEP NUMBER                  =          195
 CPU TIME [s]                 =    9.3604046851396561E-003   1.0631719432198079E-002

 *******************************************************************************
 ENSEMBLE TYPE                =                                              NVE
 STEP NUMBER                  =                                              195
 TIME [fs]                    =                                        19.500000
 CONSERVED QUANTITY [hartree] =                               0.487807510567E+00

                                              INSTANTANEOUS             AVERAGES
 CPU TIME [s]                 =                        0.01                 0.01
 ENERGY DRIFT PER ATOM [K]    =         -0.248054398665E+00  -0.138512257892E+00
 POTENTIAL ENERGY[hartree]    =          0.198479608226E+00   0.297469742391E+00
 KINETIC ENERGY [hartree]     =          0.289327902341E+00   0.190423796111E+00
 TEMPERATURE [K]              =                     246.592              162.297
 *******************************************************************************

 FOBSH| Put former active state           1 in new active state           1
 RANDOM_NUMBER_HOPPING_PROBA  0.94668851441499113     
 FOBSH| ACTIVE STATE =            1

 ENERGY| Total FORCE_EVAL ( MIXED ) energy (a.u.):             0.198389726989686

 FOBSH| CASE1: no hop and no trivial crossing
 ENTER integrator.F
 STEP NUMBER                  =          196
 CPU TIME [s]                 =    8.5781123489141464E-003   1.0621241845038466E-002

 *******************************************************************************
 ENSEMBLE TYPE                =                                              NVE
 STEP NUMBER                  =                                              196
 TIME [fs]                    =                                        19.600000
 CONSERVED QUANTITY [hartree] =                               0.487807778893E+00

                                              INSTANTANEOUS             AVERAGES
 CPU TIME [s]                 =                        0.01                 0.01
 ENERGY DRIFT PER ATOM [K]    =         -0.247712743327E+00  -0.139069403226E+00
 POTENTIAL ENERGY[hartree]    =          0.198389726990E+00   0.296964232108E+00
 KINETIC ENERGY [hartree]     =          0.289418051903E+00   0.190928868845E+00
 TEMPERATURE [K]              =                     246.669              162.727
 *******************************************************************************

 FOBSH| Put former active state           1 in new active state           1
 RANDOM_NUMBER_HOPPING_PROBA  0.45910308754384571     
 FOBSH| ACTIVE STATE =            1

 ENERGY| Total FORCE_EVAL ( MIXED ) energy (a.u.):             0.199671488704605

 FOBSH| CASE1: no hop and no trivial crossing
 ENTER integrator.F
 STEP NUMBER                  =          197
 CPU TIME [s]                 =    9.4337239861488342E-003   1.0615213835602476E-002

 *******************************************************************************
 ENSEMBLE TYPE                =                                              NVE
 STEP NUMBER                  =                                              197
 TIME [fs]                    =                                        19.700000
 CONSERVED QUANTITY [hartree] =                               0.487809186073E+00

                                              INSTANTANEOUS             AVERAGES
 CPU TIME [s]                 =                        0.01                 0.01
 ENERGY DRIFT PER ATOM [K]    =         -0.245921001910E+00  -0.139611797128E+00
 POTENTIAL ENERGY[hartree]    =          0.199671488705E+00   0.296470360314E+00
 KINETIC ENERGY [hartree]     =          0.288137697368E+00   0.191422314675E+00
 TEMPERATURE [K]              =                     245.578              163.148
 *******************************************************************************

 FOBSH| Put former active state           1 in new active state           1
 RANDOM_NUMBER_HOPPING_PROBA  0.22643546040602397     
 FOBSH| ACTIVE STATE =            1

 ENERGY| Total FORCE_EVAL ( MIXED ) energy (a.u.):             0.202302256539008

 FOBSH| CASE1: no hop and no trivial crossing
 ENTER integrator.F
 STEP NUMBER                  =          198
 CPU TIME [s]                 =    8.7190195918083191E-003   1.0605637096997455E-002

 *******************************************************************************
 ENSEMBLE TYPE                =                                              NVE
 STEP NUMBER                  =                                              198
 TIME [fs]                    =                                        19.800000
 CONSERVED QUANTITY [hartree] =                               0.487811712472E+00

                                              INSTANTANEOUS             AVERAGES
 CPU TIME [s]                 =                        0.01                 0.01
 ENERGY DRIFT PER ATOM [K]    =         -0.242704176898E+00  -0.140132465713E+00
 POTENTIAL ENERGY[hartree]    =          0.202302256539E+00   0.295994763830E+00
 KINETIC ENERGY [hartree]     =          0.285509455933E+00   0.191897502257E+00
 TEMPERATURE [K]              =                     243.338              163.553
 *******************************************************************************

 FOBSH| Put former active state           1 in new active state           1
 RANDOM_NUMBER_HOPPING_PROBA  0.67837434916334804     
 FOBSH| ACTIVE STATE =            1

 ENERGY| Total FORCE_EVAL ( MIXED ) energy (a.u.):             0.206241513645724

 FOBSH| CASE1: no hop and no trivial crossing
 ENTER integrator.F
 STEP NUMBER                  =          199
 CPU TIME [s]                 =    8.3035957068204880E-003   1.0594069049810636E-002

 *******************************************************************************
 ENSEMBLE TYPE                =                                              NVE
 STEP NUMBER                  =                                              199
 TIME [fs]                    =                                        19.900000
 CONSERVED QUANTITY [hartree] =                               0.487815324045E+00

                                              INSTANTANEOUS             AVERAGES
 CPU TIME [s]                 =                        0.01                 0.01
 ENERGY DRIFT PER ATOM [K]    =         -0.238105614476E+00  -0.140624793093E+00
 POTENTIAL ENERGY[hartree]    =          0.206241513646E+00   0.295543742473E+00
 KINETIC ENERGY [hartree]     =          0.281573810400E+00   0.192348136971E+00
 TEMPERATURE [K]              =                     239.983              163.937
 *******************************************************************************

 FOBSH| Put former active state           1 in new active state           1
 RANDOM_NUMBER_HOPPING_PROBA  0.75983624859851318     
 FOBSH| ACTIVE STATE =            1

 ENERGY| Total FORCE_EVAL ( MIXED ) energy (a.u.):             0.211431408854362

 FOBSH| CASE1: no hop and no trivial crossing
 ENTER integrator.F
 STEP NUMBER                  =          200
 CPU TIME [s]                 =    9.2518124729394913E-003   1.0587357766926280E-002

 *******************************************************************************
 ENSEMBLE TYPE                =                                              NVE
 STEP NUMBER                  =                                              200
 TIME [fs]                    =                                        20.000000
 CONSERVED QUANTITY [hartree] =                               0.487819972221E+00

                                              INSTANTANEOUS             AVERAGES
 CPU TIME [s]                 =                        0.01                 0.01
 ENERGY DRIFT PER ATOM [K]    =         -0.232187163242E+00  -0.141082604944E+00
 POTENTIAL ENERGY[hartree]    =          0.211431408854E+00   0.295123180805E+00
 KINETIC ENERGY [hartree]     =          0.276388563366E+00   0.192768339103E+00
 TEMPERATURE [K]              =                     235.564              164.295
 *******************************************************************************


 -------------------------------------------------------------------------------
 -                                                                             -
 -                                DBCSR STATISTICS                             -
 -                                                                             -
 -------------------------------------------------------------------------------
 COUNTER                                    TOTAL       BLAS       SMM       ACC
 flops total                                    0       0.0%      0.0%      0.0%
 flops max/rank                                 0       0.0%      0.0%      0.0%
 matmuls inhomo. stacks                         0       0.0%      0.0%      0.0%
 matmuls total                                  0       0.0%      0.0%      0.0%
 number of processed stacks                     0       0.0%      0.0%      0.0%
 average stack size                                     0.0       0.0       0.0
 marketing flops                     0.000000E+00
 -------------------------------------------------------------------------------

 MEMORY| Estimated peak process memory [MiB]                                 103

 -------------------------------------------------------------------------------
 -                                                                             -
 -                           R E F E R E N C E S                               -
 -                                                                             -
 -------------------------------------------------------------------------------
 
 CP2K version 4.0 (Development Version), the CP2K developers group (2015).
 CP2K is freely available from https://www.cp2k.org/ .

 Borstnik, U; VandeVondele, J; Weber, V; Hutter, J. 
 PARALLEL COMPUTING, 40 (5-6), 47-58 (2014). 
 Sparse matrix multiplication: The distributed block-compressed sparse
 row library.
 http://dx.doi.org/10.1016/j.parco.2014.03.012


 Hutter, J; Iannuzzi, M; Schiffmann, F; VandeVondele, J. 
 WILEY INTERDISCIPLINARY REVIEWS-COMPUTATIONAL MOLECULAR SCIENCE, 4 (1), 15-25 (2014). 
 CP2K: atomistic simulations of condensed matter systems.
 http://dx.doi.org/10.1002/wcms.1159


 Frigo, M; Johnson, SG. 
 PROCEEDINGS OF THE IEEE, 93 (2), 216-231 (2005). 
 The design and implementation of FFTW3.
 http://dx.doi.org/10.1109/JPROC.2004.840301


 -------------------------------------------------------------------------------
 -                                                                             -
 -                                T I M I N G                                  -
 -                                                                             -
 -------------------------------------------------------------------------------
 SUBROUTINE                       CALLS  ASD         SELF TIME        TOTAL TIME
                                MAXIMUM       AVERAGE  MAXIMUM  AVERAGE  MAXIMUM
 CP2K                                 1  1.0    0.010    0.010   23.285   23.285
 topology_control                     4  4.0    0.004    0.004   20.322   20.322
 connectivity_control                 4  5.0    0.046    0.046   20.164   20.164
 read_topology_psf                  512  6.0    8.782    8.782   20.116   20.116
 fist_create_force_env                3  2.0    0.000    0.000   14.747   14.747
 fist_init                            3  3.0    0.002    0.002   14.747   14.747
 parser_read_line                 11845  6.7    0.127    0.127   11.989   11.989
 parser_read_line_low               543  8.0   11.856   11.856   11.861   11.861
 mixed_create_force_env               1  2.0    0.000    0.000    6.342    6.342
 mixed_init                           1  3.0    0.000    0.000    6.342    6.342
 qs_mol_dyn_low                       1  2.0    0.016    0.016    2.149    2.149
 velocity_verlet                    200  3.0    0.748    0.748    1.070    1.070
 md_output                          200  3.0    0.001    0.001    1.030    1.030
 md_write_output                    201  4.0    0.986    0.986    1.017    1.017
 force_field_control                  3  4.0    0.000    0.000    0.751    0.751
 read_force_field_charmm              3  5.0    0.173    0.173    0.717    0.717
 -------------------------------------------------------------------------------

 The number of warnings for this run is : 1
 
 -------------------------------------------------------------------------------
  **** **** ******  **  PROGRAM ENDED AT                 2021-04-29 14:23:53.217
 ***** ** ***  *** **   PROGRAM RAN ON                   bulstake.phys.ucl.ac.uk
 **    ****   ******    PROGRAM RAN BY                                 sgiannini
 ***** **    ** ** **   PROGRAM PROCESS ID                                 12971
  **** **  *******  **  PROGRAM STOPPED IN /scratch/sgiannini/REG_TEST_MERGING/3
                                           7-071a0540f1_code_extension_V3_ADJ/ru
                                           n-fssh-3NAP-3ANT-mixed-inp-C-int-3FF-
                                           FE-CT
