 # Version information for this restart file 
 # current date 2021-01-14 05:47:37.370
 # current working dir /scratch/sgiannini/FOB-SH-REGTESTS_/32-XXXX_code_extension_V2/run-fssh-3NAP-3ANT-2FF-C-int
 # Program compiled at                              Wed  6 Jan 14:38:30 GMT 2021
 # Program compiled on                                   bulstake.phys.ucl.ac.uk
 # Program compiled for                                                    local
 # Source code revision number                                       git:3649ac3
 &GLOBAL
   BLACS_GRID  SQUARE
   PREFERRED_FFT_LIBRARY  FFTW3
   PRINT_LEVEL  LOW
   PROGRAM_NAME  CP2K
   PROJECT_NAME run
   RUN_TYPE  MD
 &END GLOBAL
 &MOTION
   &MD
     ENSEMBLE  NVE
     STEPS  200
     TIMESTEP     9.9999999999999992E-02
     STEP_START_VAL  200
     TIME_START_VAL     2.0000000000000071E+01
     ECONS_START_VAL     7.1720827204797932E-01
     TEMPERATURE     3.0000000000000000E+02
     &THERMOSTAT
       REGION  GLOBAL
       &NOSE
         LENGTH  3
         YOSHIDA  3
         TIMECON     9.9999999999999989E+02
         MTS  2
       &END NOSE
     &END THERMOSTAT
     &AVERAGES  T
       &RESTART_AVERAGES
         ITIMES_START  1
         AVECPU     2.1937174156773823E-02
         AVEHUGONIOT     0.0000000000000000E+00
         AVETEMP_BARO     0.0000000000000000E+00
         AVEPOT     3.3118871634059505E-01
         AVEKIN     3.8601752397045930E-01
         AVETEMP     3.2900012878849680E+02
         AVEKIN_QM     0.0000000000000000E+00
         AVETEMP_QM     0.0000000000000000E+00
         AVEVOL     1.4576402699474397E+06
         AVECELL_A     1.1338356797313864E+02
         AVECELL_B     1.1338356797313864E+02
         AVECELL_C     1.1338356797313864E+02
         AVEALPHA     9.0000000000000043E+01
         AVEBETA     9.0000000000000043E+01
         AVEGAMMA     9.0000000000000043E+01
         AVE_ECONS    -2.5865157466210481E-03
         AVE_PRESS     0.0000000000000000E+00
         AVE_PXX     0.0000000000000000E+00
       &END RESTART_AVERAGES
     &END AVERAGES
     &PRINT
       &PROGRAM_RUN_INFO  LOW
       &END PROGRAM_RUN_INFO
     &END PRINT
   &END MD
   &CONSTRAINT
     &COLLECTIVE
       COLVAR  1
       INTERMOLECULAR  T
       TARGET     0.0000000000000000E+00
       &RESTRAINT
         K     5.0000000000000001E-03
       &END RESTRAINT
     &END COLLECTIVE
     &COLLECTIVE
       COLVAR  2
       INTERMOLECULAR  T
       TARGET     0.0000000000000000E+00
       &RESTRAINT
         K     5.0000000000000001E-03
       &END RESTRAINT
     &END COLLECTIVE
     &COLLECTIVE
       COLVAR  3
       INTERMOLECULAR  T
       TARGET     0.0000000000000000E+00
       &RESTRAINT
         K     5.0000000000000001E-03
       &END RESTRAINT
     &END COLLECTIVE
     &COLLECTIVE
       COLVAR  4
       INTERMOLECULAR  T
       TARGET     0.0000000000000000E+00
       &RESTRAINT
         K     5.0000000000000001E-03
       &END RESTRAINT
     &END COLLECTIVE
     &COLLECTIVE
       COLVAR  5
       INTERMOLECULAR  T
       TARGET     0.0000000000000000E+00
       &RESTRAINT
         K     5.0000000000000001E-03
       &END RESTRAINT
     &END COLLECTIVE
     &COLLECTIVE
       COLVAR  6
       INTERMOLECULAR  T
       TARGET     0.0000000000000000E+00
       &RESTRAINT
         K     5.0000000000000001E-03
       &END RESTRAINT
     &END COLLECTIVE
     &COLLECTIVE
       COLVAR  7
       INTERMOLECULAR  T
       TARGET     0.0000000000000000E+00
       &RESTRAINT
         K     5.0000000000000001E-03
       &END RESTRAINT
     &END COLLECTIVE
     &COLLECTIVE
       COLVAR  8
       INTERMOLECULAR  T
       TARGET     0.0000000000000000E+00
       &RESTRAINT
         K     5.0000000000000001E-03
       &END RESTRAINT
     &END COLLECTIVE
     &COLLECTIVE
       COLVAR  9
       INTERMOLECULAR  T
       TARGET     0.0000000000000000E+00
       &RESTRAINT
         K     5.0000000000000001E-03
       &END RESTRAINT
     &END COLLECTIVE
     &COLLECTIVE
       COLVAR  10
       INTERMOLECULAR  T
       TARGET     0.0000000000000000E+00
       &RESTRAINT
         K     5.0000000000000001E-03
       &END RESTRAINT
     &END COLLECTIVE
     &COLLECTIVE
       COLVAR  11
       INTERMOLECULAR  T
       TARGET     0.0000000000000000E+00
       &RESTRAINT
         K     5.0000000000000001E-03
       &END RESTRAINT
     &END COLLECTIVE
     &COLLECTIVE
       COLVAR  12
       INTERMOLECULAR  T
       TARGET     0.0000000000000000E+00
       &RESTRAINT
         K     5.0000000000000001E-03
       &END RESTRAINT
     &END COLLECTIVE
     &COLVAR_RESTART
           0.0000000000000000E+00
           0.0000000000000000E+00
           0.0000000000000000E+00
           0.0000000000000000E+00
           0.0000000000000000E+00
           0.0000000000000000E+00
           0.0000000000000000E+00
           0.0000000000000000E+00
           0.0000000000000000E+00
           0.0000000000000000E+00
           0.0000000000000000E+00
           0.0000000000000000E+00
     &END COLVAR_RESTART
   &END CONSTRAINT
   &PRINT
     &TRAJECTORY  LOW
       FORMAT  XMOL
       &EACH
         MD  200
       &END EACH
     &END TRAJECTORY
     &MIXED_ENERGIES  OFF
     &END MIXED_ENERGIES
     &RESTART  ON
       &EACH
         MD  200
       &END EACH
     &END RESTART
     &RESTART_HISTORY  OFF
     &END RESTART_HISTORY
   &END PRINT
 &END MOTION
 &MULTIPLE_FORCE_EVALS
   FORCE_EVAL_ORDER  1..3
   MULTIPLE_SUBSYS  T
 &END MULTIPLE_FORCE_EVALS
 &FORCE_EVAL
   METHOD  MIXED
   &MIXED
     MIXING_TYPE  ADIABATIC
     &ADIABATIC
       METHOD_PROPAGATION FSSH
       PRINT_MORE  T
       INITIALIZATION DIABATIC
       REPRESENTATION DIABATIC_BASIS
       ELECTRONIC_PARTIAL_STEP  5
       FIRST_DIABAT  1
       FIRST_ADIABAT  1
       SEED  641704875
       NUMBER_DIABATIC_STATES  9
       NUMBER_ORBITALS  1
       NUCLEAR_TIMESTEP     9.9999999999999992E-02
       CENTER_OF_MASS  T
       METHOD_COUPLING FROZEN_COUPLINGS
       &OPTIMIZATION
         DO_SPEEDUP_LJ  F
         DO_SPEEDUP_INTRA  F
         SURF_HOP_CHOICE TRIVIAL_HOP_CORRECT
         RK_PROPAGATION DIABATIC_RK_FAST
         REORDERING_STATES_USING_OVERLAP  T
       &END OPTIMIZATION
       &DECOHERENCE
         DECOHERENCE_CORRECTIONS DAMPING
         DECO_TIME EDC
         SPURIOUS_TRANSFER_CORR  T
         EDC_C     1.0000000000000000E+00
         EDC_E0     0.0000000000000000E+00
         THRESHOLD_TAU_FORCES     9.9999999999999995E-21
         TEMPERATURE_FG_WIDTH     3.0000000000000000E+02
         DECOHERENCE_CRITERION     9.9999999999999995E-07
       &END DECOHERENCE
       &ENERGY_CONSERVATION
         METHOD_RESCALING NACV
         METHOD_ADIABATIC_NACV FAST
         METHOD_REVERSAL ALWAYS
       &END ENERGY_CONSERVATION
       &METHOD_SITE_ENERGIES
         MULTI_STATES  T
         BLOCK_TYPE CT
         &CT_BLOCK
C 6  1      -0.58339550E-01
C 6  1      -0.99845988E-01
C 6  1       0.12140408E+00
C 6  1      -0.10046501E+00
C 6  1      -0.59335682E-01
H 1  1       0.17155799E+00
H 1  1       0.17628283E+00
H 1  1       0.17678236E+00
H 1  1       0.17190822E+00
C 6  1       0.12140644E+00
C 6  1      -0.59358378E-01
C 6  1      -0.10029122E+00
C 6  1      -0.10012781E+00
C 6  1      -0.58011713E-01
H 1  1       0.17189684E+00
H 1  1       0.17672572E+00
H 1  1       0.17633935E+00
H 1  1       0.17147152E+00
C  6   1    -0.20949694E+00
C  6   1    -0.31212345E+00
C  6   1     0.25978083E+00
C  6   1    -0.61212683E+00
C  6   1     0.25537360E+00
C  6   1    -0.30923112E+00
C  6   1    -0.21247959E+00
H  1   1     0.11121255E+00
H  1   1     0.12280490E+00
H  1   1     0.17085595E+00
H  1   1     0.12225175E+00
H  1   1     0.11179799E+00
C  6   1     0.25909058E+00
C  6   1    -0.60734358E+00
C  6   1     0.25364958E+00
C  6   1    -0.31146740E+00
H  1   1     0.16986379E+00
C  6   1    -0.30795782E+00
C  6   1    -0.20951246E+00
H  1   1     0.12283089E+00
C  6   1    -0.21340590E+00
H  1   1     0.12221881E+00
H  1   1     0.11133373E+00
H  1   1     0.11208013E+00
           ADD_COULOMB_POTENTIAL  T
           DIELECTRIC_SCREENING     3.0000000000000000E+00
           N_DONOR_ATOMS  18
           N_ACCEPTOR_ATOMS  24
           INDEX_DONOR_MOLS  1..3
           INDEX_ACCEPTOR_MOLS  4..6
         &END CT_BLOCK
       &END METHOD_SITE_ENERGIES
       &FROZEN_COUPLINGS
1   1   0.0
1   2   0.001469972
1   4   0.000734986
2   2   0.0
2   3   0.001469972
2   5   0.000734986
3   3   0.0
3   6   0.000734986
4   4   0.0
4   5   0.001469972
4   7   0.000734986
5   5   0.0
5   6   0.001469972
5   8   0.000734986
6   6   0.0
6   9   0.000734986
7   7   0.0
7   8   0.001469972
8   8   0.0
8   9   0.001469972
9   9   0.0
         CONNECTIVITY_FRZ_C  T
         INTERACTION_NUMBER  21
       &END FROZEN_COUPLINGS
       &PRINT
         &COEFFICIENTS  LOW
           &EACH
             MD  1
           &END EACH
         &END COEFFICIENTS
         &POPULATIONS  LOW
           &EACH
             MD  1
           &END EACH
         &END POPULATIONS
         &ADIAB_POPULATIONS  LOW
           &EACH
             MD  1
           &END EACH
         &END ADIAB_POPULATIONS
         &ADIABAT_ENERGIES  SILENT
           &EACH
             MD  1
           &END EACH
         &END ADIABAT_ENERGIES
         &SITE_ENERGIES  SILENT
           &EACH
             MD  1
           &END EACH
         &END SITE_ENERGIES
         &OFF_DIAGONALS  SILENT
           &EACH
             MD  1
           &END EACH
         &END OFF_DIAGONALS
         &HAMILTONIAN  SILENT
           UNIT hartree
           &EACH
             MD  1
           &END EACH
         &END HAMILTONIAN
         &PSEUDO_HAMILTONIAN  SILENT
           UNIT hartree
           &EACH
             MD  1
           &END EACH
         &END PSEUDO_HAMILTONIAN
         &SH_INFO  SILENT
           &EACH
             MD  1
           &END EACH
         &END SH_INFO
       &END PRINT
     &END ADIABATIC
     &PRINT
       &PROGRAM_RUN_INFO  OFF
         &EACH
           MD  200
         &END EACH
       &END PROGRAM_RUN_INFO
     &END PRINT
   &END MIXED
   &SUBSYS
     &CELL
       A     6.0000000000000007E+01    0.0000000000000000E+00    0.0000000000000000E+00
       B     0.0000000000000000E+00    6.0000000000000007E+01    0.0000000000000000E+00
       C     0.0000000000000000E+00    0.0000000000000000E+00    6.0000000000000007E+01
       PERIODIC  XYZ
       MULTIPLE_UNIT_CELL  1 1 1
     &END CELL
     &COORD
CT   -3.3879809879016914E-01    5.2523891253498134E-01    2.6111780317072841E+00
CT   -1.0143341055604915E+00    9.0366319048736410E-01    1.4003359476524715E+00
CT   -4.8124192714545105E-01    4.6508839505256044E-01    1.1930551266282852E-01
CT   -8.9463545009750622E-01    9.9406431875234902E-01   -1.1511922878995218E+00
CT    5.8613175730413214E-01   -4.4294229703796362E-01    2.5351287211590114E+00
HA   -5.7432228781957895E-01    9.3734421606479190E-01    3.5794290008196898E+00
HA   -1.8108139319025800E+00    1.6519116691426317E+00    1.3195290309990795E+00
HA   -1.5397594461336681E+00    1.8523889650051020E+00   -1.1558190182208876E+00
HA    1.1531098027844380E+00   -8.4352729028536277E-01    3.4353246016622561E+00
CT    6.0209210057656548E-01   -5.1733388622479559E-01    1.2462126156700964E-01
CT   -4.1555723708788911E-01    3.6234217445653155E-01   -2.3796030216072683E+00
CT    1.1074212687660041E+00   -1.0095625417693705E+00    1.2740087031518936E+00
CT    1.0938618050703512E+00   -1.0697857332426426E+00   -1.0824569261836283E+00
CT    6.4473255088117942E-01   -5.1285641065129273E-01   -2.3944175223247117E+00
HA   -9.0683074370912609E-01    7.4152181213447721E-01   -3.2975908331038593E+00
HA    1.8517314544829480E+00   -1.8051273042536322E+00    1.1490751749117645E+00
HA    1.9387446656593452E+00   -1.6801456891099846E+00   -1.1284346524012956E+00
HA    1.0350234955641346E+00   -8.3397905240384818E-01   -3.3054732300181096E+00
CT    5.0245683256494864E+00   -8.6928762720749475E-01    2.3438374328970513E+00
CT    5.0537846168498639E+00   -1.5392018851997804E+00    1.1473700869541235E+00
CT    5.0894542914630847E+00   -7.7565219477792025E-01   -3.7994690244647585E-02
CT    4.8944548624293631E+00   -1.3939085547376489E+00   -1.3020945099966101E+00
CT    5.1280078014266897E+00    5.6143441501711888E-01    2.4321688082245596E+00
HA    4.8710423031932546E+00   -1.4241484633041281E+00    3.3120082037933893E+00
HA    4.9120750772142276E+00   -2.5628090402709689E+00    1.0861587793575411E+00
HA    4.5909302777517862E+00   -2.5092730152164169E+00   -1.3090381741899326E+00
HA    5.2792538338143329E+00    1.1789525339049827E+00    3.3169879716168240E+00
CT    5.2904161581831257E+00    6.0139031628451478E-01    4.5401332080590703E-02
CT    5.0119473864088269E+00   -6.0131577805593017E-01   -2.4687594229511078E+00
CT    5.4557741468170740E+00    1.2765688173055165E+00    1.2999045076927802E+00
CT    5.4870626275100971E+00    1.2761871248074272E+00   -1.1251711546916892E+00
CT    5.4481093876319351E+00    7.1037681699024213E-01   -2.3948399045997584E+00
HA    4.8045330436981555E+00   -9.3452060998906950E-01   -3.5015564977407947E+00
HA    5.6633566360018355E+00    2.3830718253731651E+00    1.3260516153867947E+00
HA    5.8918096024151643E+00    2.3188162765216229E+00   -1.0496349925464876E+00
HA    5.5590759157385490E+00    1.3031190214731361E+00   -3.3805720170828795E+00
CT    1.0246721185603940E+01   -8.2320076812318932E-01    2.4403377204323027E+00
CT    1.0499764065836471E+01   -1.4342714716715312E+00    1.1981094001357298E+00
CT    1.0237145585713153E+01   -6.3846789778084734E-01    4.9715547033001531E-02
CT    1.0613319311098799E+01   -1.1695713169706401E+00   -1.2508452800345848E+00
CT    9.5349467361097773E+00    4.0753299156140887E-01    2.4691201621671826E+00
HA    1.0402264039893371E+01   -1.3970321088277184E+00    3.3641854084949285E+00
HA    1.1029412875641738E+01   -2.4169730641764851E+00    1.1843872156480961E+00
HA    1.1085481593206454E+01   -2.1085216152412305E+00   -1.3936638583709797E+00
HA    9.0431800234154593E+00    7.0684400297631711E-01    3.3926641993766333E+00
CT    9.6726410650053811E+00    5.9759093116099216E-01    1.0923281851547616E-01
CT    1.0251816986812379E+01   -5.3206526666055565E-01   -2.4488464006471804E+00
CT    9.2488302778697253E+00    1.1519094253244009E+00    1.2793019909470904E+00
CT    9.3933896921965445E+00    1.2769101314156301E+00   -1.0732281931664891E+00
CT    9.6904163105889953E+00    7.5526885285815837E-01   -2.3516592734426451E+00
HA    1.0217017947337489E+01   -1.1423559096886151E+00   -3.3539035514891116E+00
HA    8.6770093095109271E+00    2.0154016199319633E+00    1.3129350078638111E+00
HA    8.9661529890807472E+00    2.2976108949895524E+00   -9.3013415062898752E-01
HA    9.5745381132624772E+00    1.3968080215511571E+00   -3.2144182520414155E+00
CA    1.5800250021171516E+01   -5.1273379741567959E-01    3.4878555219195930E+00
CA    1.6379021496089816E+01   -7.8611767175860481E-01    2.2620751529684711E+00
CA    1.5726333828406842E+01   -4.3335447094683621E-01    1.0464481838460549E+00
CA    1.6309429663873001E+01   -8.2374695954659949E-01   -1.9853109503007998E-01
CA    1.4403725363737337E+01    1.2841610859712838E-01    1.1126815596435173E+00
CA    1.3851131377812562E+01    3.9523692551454559E-01    2.4044616445689728E+00
CA    1.4536837541056791E+01    5.0065784068770325E-02    3.5776496261012127E+00
H    1.6259820088064814E+01   -9.0660990171121403E-01    4.3962586664184373E+00
H    1.7259800306549874E+01   -1.5122948140865575E+00    2.2428166754328376E+00
H    1.7261216012340295E+01   -1.2710682125750894E+00   -2.6306600902188859E-01
H    1.2919472290804659E+01    9.6812146434066837E-01    2.4353647601177224E+00
H    1.4167672794098401E+01    2.6540055455882944E-01    4.5625155619062543E+00
CA    1.5620978070111205E+01   -5.5052611755900149E-01   -1.4311654340994278E+00
CA    1.3789345629907643E+01    4.7776087757416463E-01   -1.2753649341299078E-01
CA    1.4398749342938277E+01    2.3699920125952309E-01   -1.3794226029885204E+00
CA    1.6114423724899076E+01   -9.2553989819857418E-01   -2.6564937221919744E+00
H    1.2808771653750842E+01    8.8022282296395105E-01   -9.0799010838091457E-02
CA    1.3736410312321622E+01    5.9900560760862354E-01   -2.5816298205751278E+00
CA    1.5393040035523551E+01   -5.6405649971549932E-01   -3.8486444441346124E+00
H    1.7064696110838909E+01   -1.4435464368774349E+00   -2.7321291322220143E+00
CA    1.4203089181389696E+01    1.2128577659804596E-01   -3.8435092905390214E+00
H    1.2690478951986240E+01    9.3842194592082884E-01   -2.4959954096718837E+00
H    1.5781661518446287E+01   -8.8393367521945099E-01   -4.7956007785272243E+00
H    1.3617328711498191E+01    1.9819180315912219E-01   -4.7627648923464090E+00
CA    2.0166606359772061E+01   -5.7905259951306964E-01    3.6453071271679418E+00
CA    2.0661649148058970E+01   -1.2366480431231195E+00    2.4795863947491581E+00
CA    2.0342749938397127E+01   -6.6043083262282098E-01    1.2146821324658437E+00
CA    2.0750288308070832E+01   -1.3432648712897362E+00    5.8567590444190278E-02
CA    1.9601221389040152E+01    5.1054798618582065E-01    1.1139410691323919E+00
CA    1.9305233177205359E+01    1.2466337377228727E+00    2.3105542687009191E+00
CA    1.9520951932630233E+01    6.6383525602954374E-01    3.5942797479878510E+00
H    2.0342323427098069E+01   -1.0435269708602413E+00    4.6656937825980220E+00
H    2.1191909221380975E+01   -2.1984376383359310E+00    2.6046805266418840E+00
H    2.1402834386892199E+01   -2.1904401640404183E+00    8.3837592234482713E-02
H    1.8775848272898827E+01    2.2026487042628764E+00    2.3295060227488253E+00
H    1.9241262696556692E+01    1.1923240575415908E+00    4.4863848992131006E+00
CA    2.0420935007459775E+01   -7.9747659442396812E-01   -1.2106196393148321E+00
CA    1.9467558738839003E+01    1.2093168910153598E+00   -1.2581876839766057E-01
CA    1.9857005012130230E+01    4.9964821285573358E-01   -1.3041021819210277E+00
CA    2.0733304732409586E+01   -1.5208860442874672E+00   -2.4138747670389122E+00
H    1.8893660240081594E+01    2.0905257813796712E+00   -1.5801087849293174E-01
CA    1.9586183026323685E+01    1.1051526815051096E+00   -2.5410364666712413E+00
CA    2.0524924135135418E+01   -8.5999007201497990E-01   -3.6852471299505534E+00
H    2.1163471549547410E+01   -2.5395028550973362E+00   -2.4847612574366873E+00
CA    1.9824682047210377E+01    3.8251233481151559E-01   -3.7104498850262773E+00
H    1.9000462040216167E+01    1.9835295357673990E+00   -2.4434163150268300E+00
H    2.0777237911415540E+01   -1.3200158644223012E+00   -4.6130687319369477E+00
H    1.9664585618350721E+01    8.6317376953311664E-01   -4.6421263091135332E+00
CA    2.5172213724181105E+01   -6.8296529261019845E-01    3.8639748575329507E+00
CA    2.5703147516312317E+01   -1.1284230699503242E+00    2.6505225416194391E+00
CA    2.5277196975843179E+01   -6.9754471978566301E-01    1.3884894124375289E+00
CA    2.5805400593360094E+01   -1.2459302587822965E+00    2.2813082718998659E-01
CA    2.4280506303851780E+01    2.9867033029720902E-01    1.2841856781222472E+00
CA    2.3765483130924576E+01    7.7778037034932290E-01    2.4785613589403326E+00
CA    2.4156820318110665E+01    2.5565337717046760E-01    3.7446504823415738E+00
H    2.5574090377574407E+01   -1.0899548306035001E+00    4.7925037849488561E+00
H    2.6493927726076279E+01   -1.7936545342704566E+00    2.7319720817009001E+00
H    2.6533162039944102E+01   -2.1174162167485586E+00    3.2894010773489091E-01
H    2.2884486495771863E+01    1.4511955287067948E+00    2.5018548059897907E+00
H    2.3784807239948343E+01    6.9131752259494039E-01    4.7112703584076598E+00
CA    2.5362050399911599E+01   -8.0601869553309891E-01   -1.0683261096419083E+00
CA    2.3872239301381288E+01    8.4236503555259690E-01    2.2901166767810038E-02
CA    2.4460970557437662E+01    3.5213236933313158E-01   -1.1636156090829137E+00
CA    2.5852466455668683E+01   -1.3574027248534768E+00   -2.2878389752848967E+00
H    2.3241392956182082E+01    1.7140575923681132E+00   -8.5817104808232958E-02
CA    2.4045241899500560E+01    8.4718781135935017E-01   -2.3969056041550965E+00
CA    2.5424200767809591E+01   -7.4257800066779134E-01   -3.5132424505560560E+00
H    2.6447908131518428E+01   -2.2220023188787361E+00   -2.1706583529034864E+00
CA    2.4525026000156057E+01    2.9938311381172417E-01   -3.5930147196173308E+00
H    2.3466647518487882E+01    1.7073931301558949E+00   -2.4406693964974036E+00
H    2.5830324050929971E+01   -1.0911223055008585E+00   -4.4774231612062412E+00
H    2.4203346665075991E+01    7.1601778601451871E-01   -4.5569435487030576E+00
Ne   -2.8961294290102369E+01   -3.1783287358932125E+02   -1.6937103359095670E+02
Ne   -2.9946113547328667E+02    1.6186052478531224E+02   -5.7618206654376102E+01
Ne   -2.5423325596734171E+02   -2.1640060425274137E+02   -1.6699031120352544E+01
Ne   -3.7238126447412486E+02   -1.0547809027615848E+02   -6.2453348075681554E+01
Ne    2.5586206143659260E+02   -2.4750778317118318E+02   -4.1120130894273970E+01
Ne   -9.2273388845009549E+01    1.7932273659562956E+00   -2.7267247861158648E+02
Ne   -4.3961180334982657E+02    3.2897425472440904E+02   -4.2396409564887205E+02
Ne   -2.8317317865037062E+01   -1.5387162569564958E+02   -1.5980482435058073E+02
Ne    1.7490986592094006E+02    2.8657470987709829E+01    2.9225152721983221E+02
Ne   -1.6294470141786800E+02    1.4263439739027157E+02   -4.5176091766484632E+01
Ne   -4.1312890676081963E+02    6.5426849809091493E+01    2.8138160894247312E+02
Ne   -8.5483759018476917E+00   -2.2964217158864645E+02   -1.4906380556294769E+02
Ne    1.4237646237244351E+02   -5.5200029809484661E+01    2.0922927397569609E+02
Ne    1.0766919345899251E+02   -2.4616307440960983E+02    8.9409330969876535E+01
Ne    4.4849623378399812E+01    1.9008133447315294E+02    1.6653046461195598E+02
Ne   -2.0238948982112831E+02   -9.9697767867268041E+01   -2.6076808846132656E+02
Ne   -1.8698368088340729E+02    2.1644628003477024E+02    1.8927301064710744E+02
Ne    7.9388487313775116E+00    3.0831042618896571E+00   -1.4829503099899409E+02
Ne   -3.3041076194174389E+02   -1.2291162752292284E+02    8.7071899114131526E+00
Ne   -8.8203127092898015E+01   -2.8345485535828676E+01    5.5130647655218006E+01
Ne    3.3777451404076135E+02    2.5527873770816174E+02    2.8068605899750264E+02
Ne    4.7515962013861360E+02    4.5757780259648804E+01    2.7308713763532427E+02
Ne   -3.5355534531908023E+02   -2.0345534756442481E+02   -1.3847375987912221E+02
Ne   -9.6101558047014763E+01    1.7958039732679495E+01    1.3330608642060847E+02
Ne   -3.8887614205822626E+02    2.5302669347614878E+02    3.8748804709926731E+01
Ne   -2.0736627709815252E+02   -2.4167176856695957E+02   -3.4830220914877501E+01
Ne   -1.1350801916118119E+01   -1.3906114383902403E+02    2.5454342886139781E+01
Ne   -2.2072996067892103E+02   -2.4916140652703721E+01    2.0866558569301941E+02
Ne    2.7280583053297056E+02   -1.1072845184230935E+02    9.1694042902251169E+01
Ne    4.6453450435565507E+01   -9.9141209578418582E+01   -2.1713163548319008E+02
Ne   -2.5542008625613167E+02   -3.4869233448214345E+02   -9.2957558026970105E+01
Ne    6.1680214564673683E+01   -3.4915243357321731E+02    1.2830398013991251E+02
Ne   -2.1514957326467629E+02    4.6123633978210833E+01    3.1907243810958272E+02
Ne    4.9257952535997397E+01   -1.6424899068515504E+02   -4.9105522805811393E+02
Ne   -9.5078800825731221E+01   -1.4617038810376517E+01   -1.3922509548751003E+02
Ne   -3.7548151124610666E+02    1.3101213917916547E+02    5.4429441030960038E+02
Ne   -1.3093517963494594E+02   -1.8805824097842651E+02    6.2719261877622723E-01
Ne    2.3283699547763851E+02   -2.7233886549599089E+02   -3.6463643998178907E+02
Ne   -2.4886772301538070E+02   -8.5460243534101039E+01   -1.6200357837983105E+02
Ne    4.6725193805752480E+02    3.4584201733846487E+02    1.1774875262712644E+02
Ne   -2.8119888966471905E+01    5.0669747610039494E+01    1.9803566843892628E+02
Ne   -1.9425772330784457E+02   -7.6171295768963873E+01   -7.1098619198076179E+01
Ne   -1.1810459739233872E+02   -2.7825069900755346E+02   -2.9271797978837685E+02
Ne   -4.4002800306514040E+01   -1.5661319154835041E+02    2.4387641963849160E+02
Ne    4.9743126229353925E+02    2.3537290364263345E+01    1.8975596266921124E+02
Ne   -2.6304793196412282E+02    2.2473674911609859E+02    1.0827097920274329E+02
Ne   -3.9808606017837701E+02   -1.1870083672370919E+02    3.8817859241351994E+02
Ne    4.5901453979056032E+02    4.3806288155772694E+02   -1.6962278493801944E+02
Ne   -6.8718174982024422E+01   -1.9135752253722947E+02    4.3141498563955486E+02
Ne    6.0311137848799626E+02    1.4916724265492013E+02    2.5799038884450874E+02
Ne   -8.5282727590796696E+01   -1.0662684214771431E+02   -3.1004517692970410E+02
Ne    1.3753070738486872E+02    2.4622960035722073E+02   -2.3017220846187223E+02
Ne    1.1529626036912883E+02   -2.1451331041156831E+02    2.3675240203180851E+02
Ne   -6.2508882663256236E+02    4.0812338808632819E+02   -6.0698791785918513E+02
Ne   -3.0352555652757928E+01    5.2682617421594848E+01   -8.2973363212835608E+01
Ne   -1.9764793617481408E+02   -1.8005560193605856E+01   -3.9776211521694313E+02
Ne    9.9980998463581287E+01    8.7918584819766735E+01   -1.3563437083562272E+02
Ne    4.4479492422856502E+01   -2.7314643022816153E+01   -2.7026833370798039E+02
Ne   -3.8833257495838438E+02    1.4237857841644703E+02   -5.4498968100600780E+02
Ne    1.6868134881810934E+02    1.4042578524621308E+02   -9.5217627253871754E+01
Ne    1.3041771969905608E+02   -2.3437326607402355E+02   -1.3011343366066401E+02
Ne    1.3162330595051966E+02    5.1599029340257255E+02    4.3843715212864561E+02
Ne   -8.4196963356756001E+01    8.9511859792804060E+01   -1.3330087649161197E+02
Ne    9.9886810665435021E+01   -2.4576718287676067E+02   -5.2296287891015453E+01
Ne    3.6742534610517004E+02    4.9567456717269216E+01   -4.0726703184622909E+02
Ne   -1.8512712058986452E+02    5.0321137850639005E+01   -1.5532809176352995E+01
Ne    1.6757141319970714E+01   -3.2383828443839758E+02    1.0359590296268555E+01
Ne   -1.4809354370442188E+02   -5.4049024981910485E+01    4.5422052939161262E+01
Ne   -2.1258086368110508E+01    1.1150189485515382E+02   -3.0598303096377344E+02
Ne    2.7469902607957611E+01    1.2206475057218890E+02    4.8213399754411256E+01
Ne    9.0080233673337105E+01   -1.7745577462455071E+02   -7.9309647015813184E+01
Ne   -1.9114481889376080E+02   -1.5678427419038249E+02    3.1523142738454351E+02
Ne   -5.3088739926254118E+02    4.3566055525431250E+02    1.0333915702478969E+02
Ne    3.3849906833097879E+02    2.0788476598595065E+02    4.0833785518296551E+01
Ne   -2.2947003396792536E+02   -2.8869295281241637E+01   -5.0345910407767413E+01
Ne   -1.2346460177536362E+02    5.0415459949966635E+02   -4.0617552033838786E+02
Ne   -9.8322219486513475E+01   -6.4091895910171260E+01   -3.5555812085055756E+01
Ne   -1.6070353153907149E+02   -2.2648032312742365E+02   -3.8892134924857589E+02
Ne   -6.2707491655558535E+01   -1.0994691841915652E+02   -1.9505146974614783E+02
Ne   -2.2358152864928354E+02    1.6636752380436550E+02   -1.1235307420720996E+02
Ne   -1.3226728435975633E+02    4.7373466837522579E+02   -2.3694277198776248E+02
Ne    1.6355796112728598E+02    1.9324155468267952E+02    3.7844649645615425E+02
Ne   -1.5300034528322399E+02    1.5814037133222880E+02    1.4055863011866525E+00
Ne    1.1514791413971279E+01    1.8936448402634198E+02    5.7601633016560743E+02
Ne    2.5449803163249111E+01    3.4090284330514542E+01   -4.9835332516591188E+02
Ne    1.3154527917026516E+02   -4.1150377038204752E+01   -1.6127715746202782E+02
Ne   -2.1672335196145745E+01    2.0270760155326096E+02   -1.1646406809577476E+01
Ne   -5.5820736003617881E+01    1.7136440094831264E+02   -1.7796853027824082E+02
Ne    5.8692165927070072E+01    7.2780127081023835E+01    9.6980845891745687E+01
Ne    1.4791052117102387E+02    1.1681423195790161E+02    5.5112070800744834E+02
Ne    3.6463757220376232E+02    2.4860121629231281E+02   -1.6680808786071759E+02
Ne    1.9880351766373488E+02    9.1718752795487415E+00    9.3833935003093401E+01
Ne   -2.3265539276682478E+02    2.1544109859741769E+02   -3.4894535984637616E+02
Ne   -3.3782620198582322E+01   -2.4710195231301256E+01    3.0694440883645370E+01
Ne   -2.1328625741254638E+02   -2.6110524740723429E+02    1.5886384784896234E+02
Ne    4.9373139609513748E+02   -4.4356921642299568E+01    2.0670663588853100E+02
Ne   -1.7728146459429539E+02    2.2934658998570555E+02   -3.5524404752259488E+02
Ne    5.9160172973011655E+01   -4.5530348521856695E+01   -4.5537021362762596E+02
Ne    2.7409918700022327E+01    2.2598166549486348E+02    2.9850203008490933E+01
Ne   -7.3571452056956034E+01   -5.1282147781916628E+01    2.0369673818355128E+02
Ne   -1.8596612513551150E+02    2.5320966365673087E+02    2.1111032133750294E+02
Ne    2.0116499911029013E+02    9.9368794356050927E+01   -3.6124510853310554E+01
Ne    2.1767520785663217E+02    1.3047586714815472E+02   -1.6411437113370124E+02
Ne   -1.8392425431656989E+02   -1.7224168733253424E+02   -3.2717678959775554E+02
Ne   -2.0547584158649119E+01    1.4507050629278848E+02    1.5634226737802885E+02
Ne   -3.3672258256997577E+02    1.0572757465205036E+02   -1.8867017256607042E+02
Ne    2.7984245222238656E+02    1.0025352163894078E+02   -7.8240493376290857E+01
Ne   -4.3727901610145256E+02   -8.7564858899374798E+00   -6.7852903822603537E+01
Ne    2.3340203685212469E+01    1.9314645108864286E+02   -2.3189613311348913E+02
Ne    6.4919246846696592E+02    8.9605881672455709E+01    1.7098039098256574E+01
Ne    2.5773696700661640E+02    1.1291525035287020E+02   -2.2495901596007457E+01
Ne   -5.0956844188504377E+01   -1.9156301960847591E+02    2.2572445934647573E+02
Ne    5.5632707914402062E+01   -6.9055057574722775E+02   -1.9888067741665301E+02
Ne   -1.7501946640373424E+02    5.7066424059526514E+02   -1.2976749051762414E+02
Ne   -5.0302647871595639E+02   -8.5053819347508494E+01   -3.1133638726629761E+02
Ne   -3.0942689171800549E+01    1.8054586020633195E+02   -1.7884016543005168E+02