#     Step Nr.          Time[fs]        Kin.[a.u.]          Temp[K]            Pot.[a.u.]        Cons Qty[a.u.]        UsedTime[s]
         0            0.000000         2.412123729       564.840579357         2.445897931         4.858021660         0.000000000
         1            0.100000         2.440888131       571.576262592         2.417111089         4.857999220        64.322682281
         2            0.200000         2.468281418       577.990875485         2.389696874         4.857978291         0.076827667
         3            0.300000         2.493971289       584.006604178         2.363987720         4.857959009         0.076978290
         4            0.400000         2.517651803       589.551806936         2.340289773         4.857941576         0.076357868
         5            0.500000         2.539046754       594.561805476         2.318879456         4.857926210         0.076316915
         6            0.600000         2.557913032       598.979671452         2.300000060         4.857913092         0.076213784
         7            0.700000         2.574043643       602.756933621         2.283858752         4.857902395         0.076162306
         8            0.800000         2.587270282       605.854180410         2.270623956         4.857894238         0.075072209
         9            0.900000         2.597465415       608.241547644         2.260423315         4.857888731         0.075304626
        10            1.000000         2.604543824       609.899079742         2.253342103         4.857885927         0.074947093
        11            1.100000         2.608463593       610.816961654         2.249422268         4.857885861         0.075042845
        12            1.200000         2.609226517       610.995613409         2.248661984         4.857888501         0.075064577
        13            1.300000         2.606877899       610.445643813         2.251015909         4.857893808         0.075489660
        14            1.400000         2.601505829       609.187680480         2.256395882         4.857901711         0.075593789
        15            1.500000         2.593239910       607.252072208         2.264672198         4.857912107         0.075958543
        16            1.600000         2.582249430       604.678460841         2.275675392         4.857924822         0.075414675
        17            1.700000         2.568740937       601.515213099         2.289198751         4.857939688         0.075162094
        18            1.800000         2.552955372       597.818749542         2.305001117         4.857956489         0.074851416
        19            1.900000         2.535164795       593.652777525         2.322810219         4.857975014         0.074769367
        20            2.000000         2.515668681       589.087424547         2.342326311         4.857994992         0.074621929
        21            2.100000         2.494789814       584.198275845         2.363226333         4.858016147         0.074682764
        22            2.200000         2.472869865       579.065339956         2.385168333         4.858038198         0.074445003
        23            2.300000         2.450264773       573.771965854         2.407796076         4.858060849         0.074368179
        24            2.400000         2.427339956       568.403722566         2.430743822         4.858083778         0.074227386
        25            2.500000         2.404465351       563.047237315         2.453641319         4.858106670         0.074391344
        26            2.600000         2.382010328       557.789004505         2.476118878         4.858129206         0.074273448
        27            2.700000         2.360338708       552.714219140         2.497812383         4.858151091         0.074688419
        28            2.800000         2.339803916       547.905641661         2.518368110         4.858172026         0.074355411
        29            2.900000         2.320744173       543.442472483         2.537447555         4.858191728         0.074439930
        30            3.000000         2.303477882       539.399271120         2.554732043         4.858209925         0.074471267
        31            3.100000         2.288299318       535.844947243         2.569927034         4.858226351         0.074674595
        32            3.200000         2.275474555       532.841806786         2.582766237         4.858240793         0.074775034
        33            3.300000         2.265237815       530.444696606         2.593015237         4.858253052         0.074804417
        34            3.400000         2.257788273       528.700257238         2.600474672         4.858262944         0.074814766
        35            3.500000         2.253287279       527.646271583         2.604983049         4.858270328         0.074642248
        36            3.600000         2.251855664       527.311034143         2.606419133         4.858274798         0.074400201
        37            3.700000         2.253573246       527.713235542         2.604702977         4.858276222         0.074376896
        38            3.800000         2.258476911       528.861513726         2.599798673         4.858275583         0.074725122
        39            3.900000         2.266559018       530.754079191         2.591713201         4.858272219         0.074474333
        40            4.000000         2.277768604       533.378998120         2.580497559         4.858266163         0.074743675
        41            4.100000         2.292011549       536.714230622         2.566245935         4.858257484         0.074366000
        42            4.200000         2.309151611       540.727873118         2.549094670         4.858246281         0.074828481
        43            4.300000         2.329012058       545.378541110         2.529220636         4.858232694         0.074516390
        44            4.400000         2.351377916       550.615894263         2.506838971         4.858216886         0.074335361
        45            4.500000         2.375998639       556.381263377         2.482200420         4.858199059         0.074503198
        46            4.600000         2.402591216       562.608376127         2.455588229         4.858179445         0.074506523
        47            4.700000         2.430843780       569.224203826         2.427314502         4.858158283         0.074325791
        48            4.800000         2.460419592       576.149892654         2.397716260         4.858135852         0.074519193
        49            4.900000         2.490961267       583.301755187         2.367151165         4.858112431         0.074380590
        50            5.000000         2.522095359       590.592342622         2.335992958         4.858088317         0.074230241
        51            5.100000         2.553437124       597.931560112         2.304626695         4.858063820         0.074380972
        52            5.200000         2.584595442       605.227820378         2.273443816         4.858039258         0.074289410
        53            5.300000         2.615177846       612.389220201         2.242837098         4.858014944         0.074206377
        54            5.400000         2.644795579       619.324725836         2.213195606         4.857991186         0.073920511
        55            5.500000         2.673068623       625.945349204         2.184899686         4.857968309         0.074350500
        56            5.600000         2.699630549       632.165284521         2.158316047         4.857946596         0.073915045
        57            5.700000         2.724133276       637.903022639         2.133793049         4.857926324         0.074215033
        58            5.800000         2.746251603       643.082412312         2.111656177         4.857907780         0.074016936
        59            5.900000         2.765687401       647.633641321         2.092203788         4.857891189         0.074181414
        60            6.000000         2.782173473       651.494140712         2.075703284         4.857876757         0.073806259
        61            6.100000         2.795477038       654.609401195         2.062387653         4.857864691         0.074009296
        62            6.200000         2.805402823       656.933695608         2.052452329         4.857855152         0.073940922
        63            6.300000         2.811795646       658.430686009         2.046052617         4.857848263         0.074083732
        64            6.400000         2.814542497       659.073908732         2.043301627         4.857844124         0.073702793
        65            6.500000         2.813574094       658.847140508         2.044268698         4.857842793         0.074089572
        66            6.600000         2.808865864       657.744626854         2.048978433         4.857844298         0.074097818
        67            6.700000         2.800438379       655.771185003         2.057410255         4.857848634         0.161612790
        68            6.800000         2.788357209       652.942169783         2.069498544         4.857855753         0.073784194
        69            6.900000         2.772732237       649.283311686         2.085133349         4.857865586         0.073476401
        70            7.000000         2.753716390       644.830421463         2.104161611         4.857878000         0.073580807
        71            7.100000         2.731503859       639.628972373         2.126388990         4.857892849         0.073930263
        72            7.200000         2.706327796       633.733560802         2.151582188         4.857909984         0.073580450
        73            7.300000         2.678457460       627.207238603         2.179471707         4.857929167         0.073723258
        74            7.400000         2.648194987       620.120755994         2.209755186         4.857950173         0.073454130
        75            7.500000         2.615871700       612.551698176         2.242101056         4.857972756         0.074130372
        76            7.600000         2.581844069       604.583538735         2.276152580         4.857996650         0.073309949
        77            7.700000         2.546489383       596.304626045         2.311532170         4.858021553         0.073907905
        78            7.800000         2.510201127       587.807102036         2.347846036         4.858047164         0.073522705
        79            7.900000         2.473384199       579.185780063         2.384688974         4.858073172         0.073468303
        80            8.000000         2.436449923       570.536979258         2.421649335         4.858099258         0.073603728
        81            8.100000         2.399811040       561.957349826         2.458314087         4.858125127         0.073602606
        82            8.200000         2.363876677       553.542695923         2.494273774         4.858150451         0.073927237
        83            8.300000         2.329047341       545.386803152         2.529127577         4.858174918         0.073794442
        84            8.400000         2.295710021       537.580291835         2.562488213         4.858198234         0.073819978
        85            8.500000         2.264233452       530.209507547         2.593986671         4.858220123         0.073575772
        86            8.600000         2.234963672       523.355481256         2.623276631         4.858240302         0.073336469
        87            8.700000         2.208219820       517.092944815         2.650038728         4.858258548         0.074041686
        88            8.800000         2.184290266       511.489425059         2.673984368         4.858274634         0.073829809
        89            8.900000         2.163429133       506.604429231         2.694859250         4.858288383         0.073526663
        90            9.000000         2.145853251       502.488731651         2.712446372         4.858299622         0.073480659
        91            9.100000         2.131739596       499.183774898         2.726568626         4.858308223         0.073412283
        92            9.200000         2.121223187       496.721175474         2.737090903         4.858314090         0.073979137
        93            9.300000         2.114395514       495.122357319         2.743921634         4.858317148         0.073529607
        94            9.400000         2.111303567       494.398324521         2.747013811         4.858317378         0.073700255
        95            9.500000         2.111949355       494.549546954         2.746365429         4.858314785         0.073274502
        96            9.600000         2.116289981       495.565979774         2.742019428         4.858309409         0.073344366
        97            9.700000         2.124238304       497.427217271         2.734063024         4.858301328         0.073138366
        98            9.800000         2.135664153       500.102777858         2.722626494         4.858290647         0.073680876
        99            9.900000         2.150396095       503.552517313         2.707881416         4.858277510         0.073289365
       100           10.000000         2.168223684       507.727156373         2.690038396         4.858262080         0.073661962
       101           10.100000         2.188900218       512.568925317         2.669344348         4.858244566         0.073388048
       102           10.200000         2.212145913       518.012307570         2.646079279         4.858225192         0.073422318
       103           10.300000         2.237651469       523.984875489         2.620552727         4.858204195         0.073551840
       104           10.400000         2.265082065       530.408225215         2.593099801         4.858181866         0.073625219
       105           10.500000         2.294081625       537.198974657         2.564076831         4.858158456         0.073444070
       106           10.600000         2.324277313       544.269818332         2.533856982         4.858134294         0.073428234
       107           10.700000         2.355284277       551.530636443         2.502825388         4.858109664         0.073563337
       108           10.800000         2.386710521       558.889636199         2.471374354         4.858084875         0.073353833
       109           10.900000         2.418161846       566.254509174         2.439898407         4.858060253         0.073102943
       110           11.000000         2.449246815       573.533593453         2.408789291         4.858036106         0.073452424
       111           11.100000         2.479581651       580.637020873         2.378431075         4.858012725         0.073421682
       112           11.200000         2.508795015       587.477836539         2.349195371         4.857990386         0.073518288
       113           11.300000         2.536532683       593.973092137         2.321436688         4.857969371         0.073710482
       114           11.400000         2.562461922       600.044872984         2.295488037         4.857949959         0.073654589
       115           11.500000         2.586275596       605.621257364         2.271656783         4.857932378         0.073853224
       116           11.600000         2.607695956       610.637205973         2.250220889         4.857916845         0.073599952
       117           11.700000         2.626478015       615.035350736         2.231425515         4.857903530         0.073504288
       118           11.800000         2.642412504       618.766687492         2.215480087         4.857892591         0.073501476
       119           11.900000         2.655328367       621.791160740         2.202555791         4.857884158         0.073282016
       120           12.000000         2.665094760       624.078130905         2.192783565         4.857878326         0.073023812
       121           12.100000         2.671622505       625.606715536         2.186252642         4.857875147         0.073477181
       122           12.200000         2.674865047       626.366012837         2.183009598         4.857874644         0.073447487
       123           12.300000         2.674818818       626.355187653         2.183058007         4.857876825         0.073012262
       124           12.400000         2.671523141       625.583447793         2.186358507         4.857881649         0.073192558
       125           12.500000         2.665076616       624.073882221         2.192831118         4.857907735         0.094123985
       126           12.600000         2.655571423       621.848076524         2.202351219         4.857922642         0.073326747
       127           12.700000         2.643175492       618.945354229         2.214759264         4.857934756         0.073459864
       128           12.800000         2.628093280       615.413592884         2.229855715         4.857948995         0.073388882
       129           12.900000         2.610557126       611.307198580         2.247408038         4.857965164         0.073686545
       130           13.000000         2.590830220       606.687801560         2.267152818         4.857983038         0.073401944
       131           13.100000         2.569203069       601.623429381         2.288799303         4.858002372         0.073539292
       132           13.200000         2.545989583       596.187589170         2.312033331         4.858022914         0.073500394
       133           13.300000         2.521522858       590.458281518         2.336521506         4.858044364         0.073711094
       134           13.400000         2.496150778       584.516969361         2.361915687         4.858066465         0.073450356
       135           13.500000         2.470231367       578.447489802         2.387857523         4.858088889         0.073377769
       136           13.600000         2.444128009       572.334936243         2.413983351         4.858111360         0.073509536
       137           13.700000         2.418204676       566.264538439         2.439928888         4.858133564         0.073655481
       138           13.800000         2.392821101       560.320534319         2.465334114         4.858155215         0.073504467
       139           13.900000         2.368327997       554.585049601         2.489848007         4.858176005         0.073196935
       140           14.000000         2.345062462       549.137021348         2.513133208         4.858195670         0.073228407
       141           14.100000         2.323343554       544.051162501         2.534870406         4.858213960         0.073115042
       142           14.200000         2.303806629       539.476252896         2.554423986         4.858230615         0.093924180
       143           14.300000         2.285997231       535.305873726         2.572248239         4.858245470         0.074112017
       144           14.400000         2.270325966       531.636175358         2.587932155         4.858258121         0.094283410
       145           14.500000         2.257495538       528.631708277         2.600773183         4.858268721         0.073047256
       146           14.600000         2.247398395       526.267287257         2.610878550         4.858276945         0.073333517
       147           14.700000         2.240169827       524.574592778         2.618112879         4.858282706         0.073394194
       148           14.800000         2.235905522       523.576031969         2.622380399         4.858285921         0.159779081
       149           14.900000         2.234660354       523.284454124         2.623626191         4.858286545         0.073037302
       150           15.000000         2.236447682       523.702987995         2.621836902         4.858284584         0.073342151
       151           15.100000         2.241239248       524.825016136         2.617040804         4.858280052         0.073093070
       152           15.200000         2.248965601       526.634275812         2.609307424         4.858273025         0.072973366
       153           15.300000         2.259517046       529.105079427         2.598746549         4.858263595         0.072970447
       154           15.400000         2.272745102       532.202658092         2.585506778         4.858251881         0.073264747
       155           15.500000         2.288464564       535.883642622         2.569773484         4.858238048         0.072994157
       156           15.600000         2.306456204       540.096696928         2.551766153         4.858222357         0.072971883
       157           15.700000         2.326474973       544.784438506         2.531732955         4.858207928         0.072878183
       158           15.800000         2.348206374       549.873222718         2.509971061         4.858177434         0.093945190
       159           15.900000         2.371400937       555.304631646         2.486756960         4.858157896         0.073095188
       160           16.000000         2.395707604       560.996459228         2.462429054         4.858136658         0.073065021
       161           16.100000         2.421281045       566.984923573         2.436833632         4.858114677         0.094283629
       162           16.200000         2.446740221       572.946630871         2.411370711         4.858110932         0.093833853
       163           16.300000         2.472259990       578.922527142         2.385831718         4.858091707         0.073111391
       164           16.400000         2.497480394       584.828321813         2.360589341         4.858069735         0.073303603
       165           16.500000         2.522052393       590.582281305         2.335995880         4.858048273         0.073880018
       166           16.600000         2.545629719       596.103320803         2.312397719         4.858027438         0.073457709
       167           16.700000         2.567876180       601.312715364         2.290131048         4.858007228         0.073875754
       168           16.800000         2.588468444       606.134750854         2.269519688         4.857988132         0.073540357
       169           16.900000         2.607101926       610.498103560         2.250868788         4.857970714         0.073370901
       170           17.000000         2.623497322       614.337369670         2.234457895         4.857955217         0.073362996
       171           17.100000         2.637404932       617.594077725         2.220536858         4.857941790         0.073359395
       172           17.200000         2.648607572       620.217370092         2.209323018         4.857930590         0.073517623
       173           17.300000         2.656923124       622.164600741         2.200998619         4.857921744         0.073614257
       174           17.400000         2.662206808       623.401866801         2.195708560         4.857915367         0.073308036
       175           17.500000         2.664352996       623.904433910         2.193558555         4.857911550         0.073677404
       176           17.600000         2.663296728       623.657090536         2.194613613         4.857910341         0.073407473
       177           17.700000         2.659014632       622.654363469         2.198897146         4.857911778         0.073152764
       178           17.800000         2.651525261       620.900597582         2.206390566         4.857915828         0.073231932
       179           17.900000         2.640889079       618.409951202         2.217033394         4.857922474         0.073721614
       180           18.000000         2.627207776       615.206236941         2.230723866         4.857931642         0.073148771
       181           18.100000         2.610623085       611.322644090         2.247320113         4.857943198         0.073242031
       182           18.200000         2.591315103       606.801345303         2.266641926         4.857957029         0.073077839
       183           18.300000         2.569500133       601.692992012         2.288472830         4.857972963         0.073696362
       184           18.400000         2.545428011       596.056087431         2.312562790         4.857990801         0.073949460
       185           18.500000         2.519379016       589.956263766         2.338631313         4.858010329         0.065600837
       186           18.600000         2.491660441       583.465479095         2.366370867         4.858031309         0.039731723
       187           18.700000         2.462602750       576.661116946         2.395450727         4.858053477         0.040060986
       188           18.800000         2.432555509       569.625034636         2.425521051         4.858076559         0.039496620
       189           18.900000         2.401882980       562.442530554         2.456217291         4.858100272         0.039741131
       190           19.000000         2.370959616       555.201288707         2.487164730         4.858124346         0.039667030
       191           19.100000         2.340165403       547.990290028         2.517983032         4.858148435         0.039770369
       192           19.200000         2.309880876       540.898643244         2.548291353         4.858172230         0.039736713
       193           19.300000         2.280482275       534.014451205         2.577713225         4.858195500         0.039532647
       194           19.400000         2.252337284       527.423813838         2.605880666         4.858217951         0.039410312
       195           19.500000         2.225800562       521.209780315         2.632438723         4.858239285         0.039794246
       196           19.600000         2.201208963       515.451231270         2.657050250         4.858259213         0.039565984
       197           19.700000         2.178877180       510.221857234         2.679400327         4.858277507         0.039552483
       198           19.800000         2.159093842       505.589245749         2.699200087         4.858293929         0.039524834
       199           19.900000         2.142117898       501.614034144         2.716190383         4.858308281         0.039710921
       200           20.000000         2.128175371       498.349149873         2.730144997         4.858320369         0.039412947
