 DBCSR| Multiplication driver                                               XSMM
 DBCSR| Multrec recursion limit                                              512
 DBCSR| Multiplication stack size                                           1000
 DBCSR| Maximum elements for images                                    UNLIMITED
 DBCSR| Randmat seed                                                    12341313
 DBCSR| Multiplication size stacks                                             3


  **** **** ******  **  PROGRAM STARTED AT               2021-02-12 16:43:36.166
 ***** ** ***  *** **   PROGRAM STARTED ON               bulstake.phys.ucl.ac.uk
 **    ****   ******    PROGRAM STARTED BY                             sgiannini
 ***** **    ** ** **   PROGRAM PROCESS ID                                  3513
  **** **  *******  **  PROGRAM STARTED IN /scratch/sgiannini/FOB-SH-REGTESTS_/3
                                           3-XXX_code_extension_V2/run-fssh-ADIA
                                           B_INIT

 CP2K| version string:                    CP2K version 4.0 (Development Version)
 CP2K| source code revision number:                                  git:cfe3005
 CP2K| cp2kflags: libint fftw3 libxc quip smm_dnn smm libxsmm libderiv_max_am1=5
 CP2K|             libint_max_am=6
 CP2K| is freely available from                            https://www.cp2k.org/
 CP2K| Program compiled at                          Fri 12 Feb 16:41:38 GMT 2021
 CP2K| Program compiled on                               bulstake.phys.ucl.ac.uk
 CP2K| Program compiled for                                                local
 CP2K| Data directory path           /scratch/sgiannini/flavoured-cptk/cp2k/data
 CP2K| Input file name                                                   run.inp

 GLOBAL| Force Environment number                                              1
 GLOBAL| Basis set file name                                           POTENTIAL
 GLOBAL| MM Potential file name                                     MM_POTENTIAL
 GLOBAL| Coordinate file name                                       pos-init.xyz
 GLOBAL| Force Environment number                                              2
 GLOBAL| Basis set file name                                           POTENTIAL
 GLOBAL| MM Potential file name                                     MM_POTENTIAL
 GLOBAL| Coordinate file name                                       pos-init.xyz
 GLOBAL| Force Environment number                                              3
 GLOBAL| Basis set file name                                           POTENTIAL
 GLOBAL| MM Potential file name                                     MM_POTENTIAL
 GLOBAL| Coordinate file name                                       pos-init.xyz
 GLOBAL| Method name                                                        CP2K
 GLOBAL| Project name                                                        run
 GLOBAL| Preferred FFT library                                             FFTW3
 GLOBAL| Preferred diagonalization lib.                                       SL
 GLOBAL| Run type                                                             MD
 GLOBAL| All-to-all communication in single precision                          F
 GLOBAL| FFTs using library dependent lengths                                  F
 GLOBAL| Global print level                                                  LOW
 GLOBAL| Total number of message passing processes                             1
 GLOBAL| Number of threads for this process                                    1
 GLOBAL| This output is from process                                           0
 GLOBAL| CPU model name :  Intel(R) Xeon(R) CPU E5-2687W v4 @ 3.00GHz

 MEMORY| system memory details [Kb]
 MEMORY|                        rank 0           min           max       average
 MEMORY| MemTotal             65894336      65894336      65894336      65894336
 MEMORY| MemFree               3436316       3436316       3436316       3436316
 MEMORY| Buffers                  9680          9680          9680          9680
 MEMORY| Cached               50526084      50526084      50526084      50526084
 MEMORY| Slab                  2053704       2053704       2053704       2053704
 MEMORY| SReclaimable          1717764       1717764       1717764       1717764
 MEMORY| MemLikelyFree        55689844      55689844      55689844      55689844

 TOTAL NUMBER OF FORCE EVALS           3
 NOTE:n_subforce_eval           2
 DECOMP =  T
 DECOMP =  T

 MD| Molecular Dynamics Protocol 
 MD| Ensemble Type                                                           NVE
 MD| Number of Time Steps                                                    200
 MD| Time Step [fs]                                                         0.10
 MD| Temperature [K]                                                      400.00
 MD| Temperature tolerance [K]                                              0.00
 MD| Print MD information every                                        1 step(s)
 MD| File type     Print frequency[steps]                             File names
 MD| Coordinates          200                                      run-pos-1.xyz
 MD| Velocities             1                                      run-vel-1.xyz
 MD| Energies               1                                         run-1.ener
 MD| Dump                 200                                      run-1.restart

 ROT| Rotational Analysis Info 
 ROT| Principal axes and moments of inertia in atomic units:
 ROT|                                1                 2                 3
 ROT| EIGENVALUES            0.319196005E+10   0.583971964E+10   0.882037602E+10
 ROT|      X                     0.997631408       0.066105605       0.019016393
 ROT|      Y                     0.066118536      -0.997811774      -0.000051363
 ROT|      Z                    -0.018971385      -0.001308578       0.999819171
 ROT| Numer of Rotovibrational vectors:     6

 Calculation of degrees of freedom
                                                      Number of atoms:       900
                                 Number of Intramolecular constraints:         0
                                 Number of Intermolecular constraints:         0
                                  Invariants(translation + rotations):         3
                                                   Degrees of freedom:      2697


 Restraints Information
                                  Number of Intramolecular restraints:         0
                                  Number of Intermolecular restraints:         0

 *** WARNING in motion/thermostat/thermostat_methods.F:280 :: Thermostat ***
 *** for Particles has been defined but the ensemble provided does not   ***
 *** support thermostat for Particles! Ignoring thermostat input.        ***

 ************************** Velocities initialization **************************
 Initial Temperature                                                    564.84 K
 COM velocity:           -0.000000000004     -0.000000000000      0.000000000001
 *******************************************************************************

 FIRST CALL: force_env_calc_energy_force
 RESTART_KEY F
 FOB-SH: ALLOCATION OF S MATRICES
 Lookup table files:
 ../topologies/S_psigma.txt                                                      
 ../topologies/S_ppi.txt                                                         
 ../topologies/S_psigma_carbon_sulfur.dat                                        
 ../topologies/S_ppi_carbon_sulfur.dat                                           
 ../topologies/S_psigma_sulfur_sulfur.dat                                        
 ../topologies/S_ppi_sulfur_sulfur.dat                                           
 C-S psigma nrows     1166666
 C-S ppi nrows     1166666
 S-S psigma nrows     1166666
 S-S ppi nrows     1166666
 FOBSH| ACTIVE STATE =            2

 ENERGY| Total FORCE_EVAL ( MIXED ) energy (a.u.):             2.445897930911900

 STEP NUMBER                  =            0
 CPU TIME [s]                 =    0.0000000000000000        0.0000000000000000     

 MD_ENERGIES| Initialization proceeding


 ******************************** GO CP2K GO! **********************************
 INITIAL POTENTIAL ENERGY[hartree]     =                      0.244589793091E+01
 INITIAL KINETIC ENERGY[hartree]       =                      0.241212372912E+01
 INITIAL TEMPERATURE[K]                =                                 564.841
 INITIAL VOLUME[bohr^3]                =                      0.580604601118E+05
 INITIAL CELL LNTHS[bohr]   =      0.7651501E+02   0.5624770E+02   0.1634991E+02
 INITIAL CELL ANGLS[deg]    =      0.9000000E+02   0.1244000E+03   0.9000000E+02
 ******************************** GO CP2K GO! **********************************
 FOBSH| *** OFF-DIAGONAL GRADIENT CALCULATION
 FOBSH| Put former active state           2 in new active state           2
 RANDOM_NUMBER_HOPPING_PROBA  0.36832894003307903     
 FOBSH| ACTIVE STATE =            2

 ENERGY| Total FORCE_EVAL ( MIXED ) energy (a.u.):             2.417111089406664

 FOBSH| CASE1: no hop and no trivial crossing
 ENTER integrator.F
 STEP NUMBER                  =            1
 CPU TIME [s]                 =    64.322682281024754        64.322682281024754     

 *******************************************************************************
 ENSEMBLE TYPE                =                                              NVE
 STEP NUMBER                  =                                                1
 TIME [fs]                    =                                         0.100000
 CONSERVED QUANTITY [hartree] =                               0.485799922031E+01

                                              INSTANTANEOUS             AVERAGES
 CPU TIME [s]                 =                       64.32                64.32
 ENERGY DRIFT PER ATOM [K]    =         -0.787321912033E-02   0.000000000000E+00
 POTENTIAL ENERGY[hartree]    =          0.241711108941E+01   0.241711108941E+01
 KINETIC ENERGY [hartree]     =          0.244088813090E+01   0.244088813090E+01
 TEMPERATURE [K]              =                     571.576              571.576
 *******************************************************************************

 FOBSH| *** OFF-DIAGONAL GRADIENT CALCULATION
 FOBSH| Put former active state           2 in new active state           2
 RANDOM_NUMBER_HOPPING_PROBA  0.25812182056003685     
 FOBSH| ACTIVE STATE =            2

 ENERGY| Total FORCE_EVAL ( MIXED ) energy (a.u.):             2.389696873682795

 FOBSH| CASE1: no hop and no trivial crossing
 ENTER integrator.F
 STEP NUMBER                  =            2
 CPU TIME [s]                 =    7.6827666722238064E-002   32.199754973873496     

 *******************************************************************************
 ENSEMBLE TYPE                =                                              NVE
 STEP NUMBER                  =                                                2
 TIME [fs]                    =                                         0.200000
 CONSERVED QUANTITY [hartree] =                               0.485797829136E+01

                                              INSTANTANEOUS             AVERAGES
 CPU TIME [s]                 =                        0.08                32.20
 ENERGY DRIFT PER ATOM [K]    =         -0.152163654645E-01  -0.760818273224E-02
 POTENTIAL ENERGY[hartree]    =          0.238969687368E+01   0.240340398154E+01
 KINETIC ENERGY [hartree]     =          0.246828141768E+01   0.245458477429E+01
 TEMPERATURE [K]              =                     577.991              574.784
 *******************************************************************************

 FOBSH| *** OFF-DIAGONAL GRADIENT CALCULATION
 FOBSH| Put former active state           2 in new active state           2
 RANDOM_NUMBER_HOPPING_PROBA  0.45872223293739944     
 FOBSH| ACTIVE STATE =            2

 ENERGY| Total FORCE_EVAL ( MIXED ) energy (a.u.):             2.363987719712452

 FOBSH| CASE1: no hop and no trivial crossing
 ENTER integrator.F
 STEP NUMBER                  =            3
 CPU TIME [s]                 =    7.6978289522230625E-002   21.492162745756406     

 *******************************************************************************
 ENSEMBLE TYPE                =                                              NVE
 STEP NUMBER                  =                                                3
 TIME [fs]                    =                                         0.300000
 CONSERVED QUANTITY [hartree] =                               0.485795900893E+01

                                              INSTANTANEOUS             AVERAGES
 CPU TIME [s]                 =                        0.08                21.49
 ENERGY DRIFT PER ATOM [K]    =         -0.219818114436E-01  -0.123993923027E-01
 POTENTIAL ENERGY[hartree]    =          0.236398771971E+01   0.239026522760E+01
 KINETIC ENERGY [hartree]     =          0.249397128922E+01   0.246771361260E+01
 TEMPERATURE [K]              =                     584.007              577.858
 *******************************************************************************

 FOBSH| *** OFF-DIAGONAL GRADIENT CALCULATION
 FOBSH| Put former active state           2 in new active state           2
 RANDOM_NUMBER_HOPPING_PROBA  0.66592472524203894     
 FOBSH| ACTIVE STATE =            2

 ENERGY| Total FORCE_EVAL ( MIXED ) energy (a.u.):             2.340289773142040

 FOBSH| CASE1: no hop and no trivial crossing
 ENTER integrator.F
 STEP NUMBER                  =            4
 CPU TIME [s]                 =    7.6357867568731308E-002   16.138211526209489     

 *******************************************************************************
 ENSEMBLE TYPE                =                                              NVE
 STEP NUMBER                  =                                                4
 TIME [fs]                    =                                         0.400000
 CONSERVED QUANTITY [hartree] =                               0.485794157620E+01

                                              INSTANTANEOUS             AVERAGES
 CPU TIME [s]                 =                        0.08                16.14
 ENERGY DRIFT PER ATOM [K]    =         -0.280982715426E-01  -0.163241121127E-01
 POTENTIAL ENERGY[hartree]    =          0.234028977314E+01   0.237777136399E+01
 KINETIC ENERGY [hartree]     =          0.251765180306E+01   0.248019816021E+01
 TEMPERATURE [K]              =                     589.552              580.781
 *******************************************************************************

 FOBSH| *** OFF-DIAGONAL GRADIENT CALCULATION
 FOBSH| Put former active state           2 in new active state           2
 RANDOM_NUMBER_HOPPING_PROBA  0.11613064681998794     
 FOBSH| ACTIVE STATE =            2

 ENERGY| Total FORCE_EVAL ( MIXED ) energy (a.u.):             2.318879456190477

 FOBSH| CASE1: no hop and no trivial crossing
 ENTER integrator.F
 STEP NUMBER                  =            5
 CPU TIME [s]                 =    7.6316915452480316E-002   12.925832604058087     

 *******************************************************************************
 ENSEMBLE TYPE                =                                              NVE
 STEP NUMBER                  =                                                5
 TIME [fs]                    =                                         0.500000
 CONSERVED QUANTITY [hartree] =                               0.485792620997E+01

                                              INSTANTANEOUS             AVERAGES
 CPU TIME [s]                 =                        0.08                12.93
 ENERGY DRIFT PER ATOM [K]    =         -0.334896777360E-01  -0.197572252374E-01
 POTENTIAL ENERGY[hartree]    =          0.231887945619E+01   0.236599298243E+01
 KINETIC ENERGY [hartree]     =          0.253904675378E+01   0.249196787893E+01
 TEMPERATURE [K]              =                     594.562              583.537
 *******************************************************************************

 FOBSH| *** OFF-DIAGONAL GRADIENT CALCULATION
 FOBSH| Put former active state           2 in new active state           2
 RANDOM_NUMBER_HOPPING_PROBA  0.81915661724856514     
 FOBSH| ACTIVE STATE =            2

 ENERGY| Total FORCE_EVAL ( MIXED ) energy (a.u.):             2.300000060094924

 FOBSH| CASE1: no hop and no trivial crossing
 ENTER integrator.F
 STEP NUMBER                  =            6
 CPU TIME [s]                 =    7.6213783584535122E-002   10.784229467312494     

 *******************************************************************************
 ENSEMBLE TYPE                =                                              NVE
 STEP NUMBER                  =                                                6
 TIME [fs]                    =                                         0.600000
 CONSERVED QUANTITY [hartree] =                               0.485791309180E+01

                                              INSTANTANEOUS             AVERAGES
 CPU TIME [s]                 =                        0.08                10.78
 ENERGY DRIFT PER ATOM [K]    =         -0.380923296849E-01  -0.228130759786E-01
 POTENTIAL ENERGY[hartree]    =          0.230000006009E+01   0.235499416204E+01
 KINETIC ENERGY [hartree]     =          0.255791303170E+01   0.250295873772E+01
 TEMPERATURE [K]              =                     598.980              586.111
 *******************************************************************************

 FOBSH| *** OFF-DIAGONAL GRADIENT CALCULATION
 FOBSH| Put former active state           2 in new active state           2
 RANDOM_NUMBER_HOPPING_PROBA  0.98442403919999499     
 FOBSH| ACTIVE STATE =            2

 ENERGY| Total FORCE_EVAL ( MIXED ) energy (a.u.):             2.283858752134004

 FOBSH| CASE1: no hop and no trivial crossing
 ENTER integrator.F
 STEP NUMBER                  =            7
 CPU TIME [s]                 =    7.6162305660545826E-002   9.2545055870765012     

 *******************************************************************************
 ENSEMBLE TYPE                =                                              NVE
 STEP NUMBER                  =                                                7
 TIME [fs]                    =                                         0.700000
 CONSERVED QUANTITY [hartree] =                               0.485790239492E+01

                                              INSTANTANEOUS             AVERAGES
 CPU TIME [s]                 =                        0.08                 9.25
 ENERGY DRIFT PER ATOM [K]    =         -0.418454445522E-01  -0.255319857748E-01
 POTENTIAL ENERGY[hartree]    =          0.228385875213E+01   0.234483196062E+01
 KINETIC ENERGY [hartree]     =          0.257404364279E+01   0.251311372416E+01
 TEMPERATURE [K]              =                     602.757              588.489
 *******************************************************************************

 FOBSH| *** OFF-DIAGONAL GRADIENT CALCULATION
 FOBSH| Put former active state           2 in new active state           2
 RANDOM_NUMBER_HOPPING_PROBA  0.48837860337988231     
 FOBSH| ACTIVE STATE =            2

 ENERGY| Total FORCE_EVAL ( MIXED ) energy (a.u.):             2.270623956015343

 FOBSH| CASE1: no hop and no trivial crossing
 ENTER integrator.F
 STEP NUMBER                  =            8
 CPU TIME [s]                 =    7.5072209350764751E-002   8.1070764148607850     

 *******************************************************************************
 ENSEMBLE TYPE                =                                              NVE
 STEP NUMBER                  =                                                8
 TIME [fs]                    =                                         0.800000
 CONSERVED QUANTITY [hartree] =                               0.485789423787E+01

                                              INSTANTANEOUS             AVERAGES
 CPU TIME [s]                 =                        0.08                 8.11
 ENERGY DRIFT PER ATOM [K]    =         -0.447074320777E-01  -0.279289165627E-01
 POTENTIAL ENERGY[hartree]    =          0.227062395602E+01   0.233555596005E+01
 KINETIC ENERGY [hartree]     =          0.258727028186E+01   0.252238329387E+01
 TEMPERATURE [K]              =                     605.854              590.660
 *******************************************************************************

 FOBSH| *** OFF-DIAGONAL GRADIENT CALCULATION
 FOBSH| Put former active state           2 in new active state           2
 RANDOM_NUMBER_HOPPING_PROBA  0.74834436682416794     
 FOBSH| ACTIVE STATE =            2

 ENERGY| Total FORCE_EVAL ( MIXED ) energy (a.u.):             2.260423315418756

 FOBSH| CASE1: no hop and no trivial crossing
 ENTER integrator.F
 STEP NUMBER                  =            9
 CPU TIME [s]                 =    7.5304626487195492E-002   7.2146573272637191     

 *******************************************************************************
 ENSEMBLE TYPE                =                                              NVE
 STEP NUMBER                  =                                                9
 TIME [fs]                    =                                         0.900000
 CONSERVED QUANTITY [hartree] =                               0.485788873085E+01

                                              INSTANTANEOUS             AVERAGES
 CPU TIME [s]                 =                        0.08                 7.21
 ENERGY DRIFT PER ATOM [K]    =         -0.466396292997E-01  -0.300078846446E-01
 POTENTIAL ENERGY[hartree]    =          0.226042331542E+01   0.232720788842E+01
 KINETIC ENERGY [hartree]     =          0.259746541543E+01   0.253072575182E+01
 TEMPERATURE [K]              =                     608.242              592.613
 *******************************************************************************

 FOBSH| *** OFF-DIAGONAL GRADIENT CALCULATION
 FOBSH| Put former active state           2 in new active state           2
 RANDOM_NUMBER_HOPPING_PROBA  0.47055881397710964     
 FOBSH| ACTIVE STATE =            2

 ENERGY| Total FORCE_EVAL ( MIXED ) energy (a.u.):             2.253342102790688

 FOBSH| CASE1: no hop and no trivial crossing
 ENTER integrator.F
 STEP NUMBER                  =           10
 CPU TIME [s]                 =    7.4947092682123184E-002   6.5006863038055602     

 *******************************************************************************
 ENSEMBLE TYPE                =                                              NVE
 STEP NUMBER                  =                                               10
 TIME [fs]                    =                                         1.000000
 CONSERVED QUANTITY [hartree] =                               0.485788592698E+01

                                              INSTANTANEOUS             AVERAGES
 CPU TIME [s]                 =                        0.07                 6.50
 ENERGY DRIFT PER ATOM [K]    =         -0.476233965313E-01  -0.317694358333E-01
 POTENTIAL ENERGY[hartree]    =          0.225334210279E+01   0.231982130986E+01
 KINETIC ENERGY [hartree]     =          0.260454382419E+01   0.253810755906E+01
 TEMPERATURE [K]              =                     609.899              594.342
 *******************************************************************************

 FOBSH| *** OFF-DIAGONAL GRADIENT CALCULATION
 FOBSH| Put former active state           2 in new active state           2
 RANDOM_NUMBER_HOPPING_PROBA  0.13436164193489161     
 FOBSH| ACTIVE STATE =            2

 ENERGY| Total FORCE_EVAL ( MIXED ) energy (a.u.):             2.249422267897739

 FOBSH| CASE1: no hop and no trivial crossing
 ENTER integrator.F
 STEP NUMBER                  =           11
 CPU TIME [s]                 =    7.5042844749987125E-002   5.9165368984368714     

 *******************************************************************************
 ENSEMBLE TYPE                =                                              NVE
 STEP NUMBER                  =                                               11
 TIME [fs]                    =                                         1.100000
 CONSERVED QUANTITY [hartree] =                               0.485788586135E+01

                                              INSTANTANEOUS             AVERAGES
 CPU TIME [s]                 =                        0.08                 5.92
 ENERGY DRIFT PER ATOM [K]    =         -0.476464242705E-01  -0.332127984185E-01
 POTENTIAL ENERGY[hartree]    =          0.224942226790E+01   0.231342139695E+01
 KINETIC ENERGY [hartree]     =          0.260846359345E+01   0.254450356219E+01
 TEMPERATURE [K]              =                     610.817              595.840
 *******************************************************************************

 FOBSH| *** OFF-DIAGONAL GRADIENT CALCULATION
 FOBSH| Put former active state           2 in new active state           2
 RANDOM_NUMBER_HOPPING_PROBA  0.61395954287228760     
 FOBSH| ACTIVE STATE =            2

 ENERGY| Total FORCE_EVAL ( MIXED ) energy (a.u.):             2.248661983784382

 FOBSH| CASE1: no hop and no trivial crossing
 ENTER integrator.F
 STEP NUMBER                  =           12
 CPU TIME [s]                 =    7.5064577162265778E-002   5.4297475383306537     

 *******************************************************************************
 ENSEMBLE TYPE                =                                              NVE
 STEP NUMBER                  =                                               12
 TIME [fs]                    =                                         1.200000
 CONSERVED QUANTITY [hartree] =                               0.485788850071E+01

                                              INSTANTANEOUS             AVERAGES
 CPU TIME [s]                 =                        0.08                 5.43
 ENERGY DRIFT PER ATOM [K]    =         -0.467203756128E-01  -0.343384298513E-01
 POTENTIAL ENERGY[hartree]    =          0.224866198378E+01   0.230802477919E+01
 KINETIC ENERGY [hartree]     =          0.260922651693E+01   0.254989714175E+01
 TEMPERATURE [K]              =                     610.996              597.103
 *******************************************************************************

 FOBSH| *** OFF-DIAGONAL GRADIENT CALCULATION
 FOBSH| Put former active state           2 in new active state           2
 RANDOM_NUMBER_HOPPING_PROBA  0.96457107309968759     
 FOBSH| ACTIVE STATE =            2

 ENERGY| Total FORCE_EVAL ( MIXED ) energy (a.u.):             2.251015909379624

 FOBSH| CASE1: no hop and no trivial crossing
 ENTER integrator.F
 STEP NUMBER                  =           13
 CPU TIME [s]                 =    7.5489659793674946E-002   5.0178815476739640     

 *******************************************************************************
 ENSEMBLE TYPE                =                                              NVE
 STEP NUMBER                  =                                               13
 TIME [fs]                    =                                         1.300000
 CONSERVED QUANTITY [hartree] =                               0.485789380838E+01

                                              INSTANTANEOUS             AVERAGES
 CPU TIME [s]                 =                        0.08                 5.02
 ENERGY DRIFT PER ATOM [K]    =         -0.448581258395E-01  -0.351476372350E-01
 POTENTIAL ENERGY[hartree]    =          0.225101590938E+01   0.230363948151E+01
 KINETIC ENERGY [hartree]     =          0.260687789900E+01   0.255428027692E+01
 TEMPERATURE [K]              =                     610.446              598.129
 *******************************************************************************

 FOBSH| *** OFF-DIAGONAL GRADIENT CALCULATION
 FOBSH| Put former active state           2 in new active state           2
 RANDOM_NUMBER_HOPPING_PROBA  0.66751708994702319     
 FOBSH| ACTIVE STATE =            2

 ENERGY| Total FORCE_EVAL ( MIXED ) energy (a.u.):             2.256395882340758

 FOBSH| CASE1: no hop and no trivial crossing
 ENTER integrator.F
 STEP NUMBER                  =           14
 CPU TIME [s]                 =    7.5593789108097553E-002   4.6648609934906871     

 *******************************************************************************
 ENSEMBLE TYPE                =                                              NVE
 STEP NUMBER                  =                                               14
 TIME [fs]                    =                                         1.400000
 CONSERVED QUANTITY [hartree] =                               0.485790171121E+01

                                              INSTANTANEOUS             AVERAGES
 CPU TIME [s]                 =                        0.08                 4.66
 ENERGY DRIFT PER ATOM [K]    =         -0.420853331470E-01  -0.356431869430E-01
 POTENTIAL ENERGY[hartree]    =          0.225639588234E+01   0.230026493871E+01
 KINETIC ENERGY [hartree]     =          0.260150582886E+01   0.255765353063E+01
 TEMPERATURE [K]              =                     609.188              598.919
 *******************************************************************************

 FOBSH| *** OFF-DIAGONAL GRADIENT CALCULATION
 FOBSH| Put former active state           2 in new active state           2
 RANDOM_NUMBER_HOPPING_PROBA  0.15813975196636013     
 FOBSH| ACTIVE STATE =            2

 ENERGY| Total FORCE_EVAL ( MIXED ) energy (a.u.):             2.264672197647288

 FOBSH| CASE1: no hop and no trivial crossing
 ENTER integrator.F
 STEP NUMBER                  =           15
 CPU TIME [s]                 =    7.5958542525768280E-002   4.3589341634263592     

 *******************************************************************************
 ENSEMBLE TYPE                =                                              NVE
 STEP NUMBER                  =                                               15
 TIME [fs]                    =                                         1.500000
 CONSERVED QUANTITY [hartree] =                               0.485791210722E+01

                                              INSTANTANEOUS             AVERAGES
 CPU TIME [s]                 =                        0.08                 4.36
 ENERGY DRIFT PER ATOM [K]    =         -0.384377811358E-01  -0.358294932225E-01
 POTENTIAL ENERGY[hartree]    =          0.226467219765E+01   0.229789208931E+01
 KINETIC ENERGY [hartree]     =          0.259323990957E+01   0.256002595590E+01
 TEMPERATURE [K]              =                     607.252              599.474
 *******************************************************************************

 FOBSH| *** OFF-DIAGONAL GRADIENT CALCULATION
 FOBSH| Put former active state           2 in new active state           2
 RANDOM_NUMBER_HOPPING_PROBA   1.8543802866970889E-002
 FOBSH| ACTIVE STATE =            2

 ENERGY| Total FORCE_EVAL ( MIXED ) energy (a.u.):             2.275675392345053

 FOBSH| CASE1: no hop and no trivial crossing
 ENTER integrator.F
 STEP NUMBER                  =           16
 CPU TIME [s]                 =    7.5414675287902355E-002   4.0912141954177059     

 *******************************************************************************
 ENSEMBLE TYPE                =                                              NVE
 STEP NUMBER                  =                                               16
 TIME [fs]                    =                                         1.600000
 CONSERVED QUANTITY [hartree] =                               0.485792482199E+01

                                              INSTANTANEOUS             AVERAGES
 CPU TIME [s]                 =                        0.08                 4.09
 ENERGY DRIFT PER ATOM [K]    =         -0.339766664767E-01  -0.357136915509E-01
 POTENTIAL ENERGY[hartree]    =          0.227567539235E+01   0.229650354575E+01
 KINETIC ENERGY [hartree]     =          0.258224942965E+01   0.256141492300E+01
 TEMPERATURE [K]              =                     604.678              599.800
 *******************************************************************************

 FOBSH| *** OFF-DIAGONAL GRADIENT CALCULATION
 FOBSH| Put former active state           2 in new active state           2
 RANDOM_NUMBER_HOPPING_PROBA  0.55447641139176995     
 FOBSH| ACTIVE STATE =            2

 ENERGY| Total FORCE_EVAL ( MIXED ) energy (a.u.):             2.289198751056090

 FOBSH| CASE1: no hop and no trivial crossing
 ENTER integrator.F
 STEP NUMBER                  =           17
 CPU TIME [s]                 =    7.5162094086408615E-002   3.8549758365158651     

 *******************************************************************************
 ENSEMBLE TYPE                =                                              NVE
 STEP NUMBER                  =                                               17
 TIME [fs]                    =                                         1.700000
 CONSERVED QUANTITY [hartree] =                               0.485793968783E+01

                                              INSTANTANEOUS             AVERAGES
 CPU TIME [s]                 =                        0.08                 3.85
 ENERGY DRIFT PER ATOM [K]    =         -0.287608273896E-01  -0.353046995414E-01
 POTENTIAL ENERGY[hartree]    =          0.228919875106E+01   0.229607385194E+01
 KINETIC ENERGY [hartree]     =          0.256874093677E+01   0.256184586499E+01
 TEMPERATURE [K]              =                     601.515              599.901
 *******************************************************************************

 FOBSH| *** OFF-DIAGONAL GRADIENT CALCULATION
 FOBSH| Put former active state           2 in new active state           2
 RANDOM_NUMBER_HOPPING_PROBA  0.46705821136667119     
 FOBSH| ACTIVE STATE =            2

 ENERGY| Total FORCE_EVAL ( MIXED ) energy (a.u.):             2.305001116848047

 FOBSH| CASE1: no hop and no trivial crossing
 ENTER integrator.F
 STEP NUMBER                  =           18
 CPU TIME [s]                 =    7.4851416051387787E-002   3.6449689242678383     

 *******************************************************************************
 ENSEMBLE TYPE                =                                              NVE
 STEP NUMBER                  =                                               18
 TIME [fs]                    =                                         1.800000
 CONSERVED QUANTITY [hartree] =                               0.485795648901E+01

                                              INSTANTANEOUS             AVERAGES
 CPU TIME [s]                 =                        0.07                 3.64
 ENERGY DRIFT PER ATOM [K]    =         -0.228659515213E-01  -0.346136579848E-01
 POTENTIAL ENERGY[hartree]    =          0.230500111685E+01   0.229656981110E+01
 KINETIC ENERGY [hartree]     =          0.255295537217E+01   0.256135194872E+01
 TEMPERATURE [K]              =                     597.819              599.785
 *******************************************************************************

 FOBSH| *** OFF-DIAGONAL GRADIENT CALCULATION
 FOBSH| Put former active state           2 in new active state           2
 RANDOM_NUMBER_HOPPING_PROBA  0.17124770665995848     
 FOBSH| ACTIVE STATE =            2

 ENERGY| Total FORCE_EVAL ( MIXED ) energy (a.u.):             2.322810219070510

 FOBSH| CASE1: no hop and no trivial crossing
 ENTER integrator.F
 STEP NUMBER                  =           19
 CPU TIME [s]                 =    7.4769367463886738E-002   3.4570636844360512     

 *******************************************************************************
 ENSEMBLE TYPE                =                                              NVE
 STEP NUMBER                  =                                               19
 TIME [fs]                    =                                         1.900000
 CONSERVED QUANTITY [hartree] =                               0.485797501399E+01

                                              INSTANTANEOUS             AVERAGES
 CPU TIME [s]                 =                        0.07                 3.46
 ENERGY DRIFT PER ATOM [K]    =         -0.163662637910E-01  -0.336532688167E-01
 POTENTIAL ENERGY[hartree]    =          0.232281021907E+01   0.229795088521E+01
 KINETIC ENERGY [hartree]     =          0.253516479492E+01   0.255997367747E+01
 TEMPERATURE [K]              =                     593.653              599.462
 *******************************************************************************

 FOBSH| *** OFF-DIAGONAL GRADIENT CALCULATION
 FOBSH| Put former active state           2 in new active state           2
 RANDOM_NUMBER_HOPPING_PROBA  0.38379703551292965     
 FOBSH| ACTIVE STATE =            2

 ENERGY| Total FORCE_EVAL ( MIXED ) energy (a.u.):             2.342326310615257

 FOBSH| CASE1: no hop and no trivial crossing
 ENTER integrator.F
 STEP NUMBER                  =           20
 CPU TIME [s]                 =    7.4621928855776787E-002   3.2879415966570380     

 *******************************************************************************
 ENSEMBLE TYPE                =                                              NVE
 STEP NUMBER                  =                                               20
 TIME [fs]                    =                                         2.000000
 CONSERVED QUANTITY [hartree] =                               0.485799499167E+01

                                              INSTANTANEOUS             AVERAGES
 CPU TIME [s]                 =                        0.07                 3.29
 ENERGY DRIFT PER ATOM [K]    =         -0.935688092948E-02  -0.324384494223E-01
 POTENTIAL ENERGY[hartree]    =          0.234232631062E+01   0.230016965648E+01
 KINETIC ENERGY [hartree]     =          0.251566868106E+01   0.255775842765E+01
 TEMPERATURE [K]              =                     589.087              598.943
 *******************************************************************************

 FOBSH| *** OFF-DIAGONAL GRADIENT CALCULATION
 FOBSH| Put former active state           2 in new active state           2
 RANDOM_NUMBER_HOPPING_PROBA  0.73695705884300833     
 FOBSH| ACTIVE STATE =            2

 ENERGY| Total FORCE_EVAL ( MIXED ) energy (a.u.):             2.363226333018760

 FOBSH| CASE1: no hop and no trivial crossing
 ENTER integrator.F
 STEP NUMBER                  =           21
 CPU TIME [s]                 =    7.4682763777673244E-002   3.1349292712818295     

 *******************************************************************************
 ENSEMBLE TYPE                =                                              NVE
 STEP NUMBER                  =                                               21
 TIME [fs]                    =                                         2.100000
 CONSERVED QUANTITY [hartree] =                               0.485801614660E+01

                                              INSTANTANEOUS             AVERAGES
 CPU TIME [s]                 =                        0.07                 3.13
 ENERGY DRIFT PER ATOM [K]    =         -0.193444645129E-02  -0.309858778523E-01
 POTENTIAL ENERGY[hartree]    =          0.236322633302E+01   0.230317235536E+01
 KINETIC ENERGY [hartree]     =          0.249478981359E+01   0.255475992222E+01
 TEMPERATURE [K]              =                     584.198              598.241
 *******************************************************************************

 FOBSH| *** OFF-DIAGONAL GRADIENT CALCULATION
 FOBSH| Put former active state           2 in new active state           2
 RANDOM_NUMBER_HOPPING_PROBA  0.63935112743290023     
 FOBSH| ACTIVE STATE =            2

 ENERGY| Total FORCE_EVAL ( MIXED ) energy (a.u.):             2.385168332766202

 FOBSH| CASE1: no hop and no trivial crossing
 ENTER integrator.F
 STEP NUMBER                  =           22
 CPU TIME [s]                 =    7.4445002712309361E-002   2.9958163499832149     

 *******************************************************************************
 ENSEMBLE TYPE                =                                              NVE
 STEP NUMBER                  =                                               22
 TIME [fs]                    =                                         2.200000
 CONSERVED QUANTITY [hartree] =                               0.485803819777E+01

                                              INSTANTANEOUS             AVERAGES
 CPU TIME [s]                 =                        0.07                 3.00
 ENERGY DRIFT PER ATOM [K]    =          0.580244021050E-02  -0.293136815767E-01
 POTENTIAL ENERGY[hartree]    =          0.238516833277E+01   0.230689944524E+01
 KINETIC ENERGY [hartree]     =          0.247286986500E+01   0.255103764689E+01
 TEMPERATURE [K]              =                     579.065              597.370
 *******************************************************************************

 FOBSH| *** OFF-DIAGONAL GRADIENT CALCULATION
 FOBSH| Put former active state           2 in new active state           2
 RANDOM_NUMBER_HOPPING_PROBA  0.61373709134229348     
 FOBSH| ACTIVE STATE =            2

 ENERGY| Total FORCE_EVAL ( MIXED ) energy (a.u.):             2.407796075829423

 FOBSH| CASE1: no hop and no trivial crossing
 ENTER integrator.F
 STEP NUMBER                  =           23
 CPU TIME [s]                 =    7.4368178844451904E-002   2.8687968642815291     

 *******************************************************************************
 ENSEMBLE TYPE                =                                              NVE
 STEP NUMBER                  =                                               23
 TIME [fs]                    =                                         2.300000
 CONSERVED QUANTITY [hartree] =                               0.485806084880E+01

                                              INSTANTANEOUS             AVERAGES
 CPU TIME [s]                 =                        0.07                 2.87
 ENERGY DRIFT PER ATOM [K]    =          0.137497985421E-01  -0.274413563541E-01
 POTENTIAL ENERGY[hartree]    =          0.240779607583E+01   0.231128625527E+01
 KINETIC ENERGY [hartree]     =          0.245026477297E+01   0.254665621759E+01
 TEMPERATURE [K]              =                     573.772              596.344
 *******************************************************************************

 FOBSH| *** OFF-DIAGONAL GRADIENT CALCULATION
 FOBSH| Put former active state           2 in new active state           2
 RANDOM_NUMBER_HOPPING_PROBA  0.43788450748659152     
 FOBSH| ACTIVE STATE =            2

 ENERGY| Total FORCE_EVAL ( MIXED ) energy (a.u.):             2.430743822372585

 FOBSH| CASE1: no hop and no trivial crossing
 ENTER integrator.F
 STEP NUMBER                  =           24
 CPU TIME [s]                 =    7.4227386154234409E-002   2.7523564693595586     

 *******************************************************************************
 ENSEMBLE TYPE                =                                              NVE
 STEP NUMBER                  =                                               24
 TIME [fs]                    =                                         2.400000
 CONSERVED QUANTITY [hartree] =                               0.485808377816E+01

                                              INSTANTANEOUS             AVERAGES
 CPU TIME [s]                 =                        0.07                 2.75
 ENERGY DRIFT PER ATOM [K]    =          0.217948100603E-01  -0.253898494202E-01
 POTENTIAL ENERGY[hartree]    =          0.243074382237E+01   0.231626365390E+01
 KINETIC ENERGY [hartree]     =          0.242733995579E+01   0.254168470668E+01
 TEMPERATURE [K]              =                     568.404              595.180
 *******************************************************************************

 FOBSH| *** OFF-DIAGONAL GRADIENT CALCULATION
 FOBSH| Put former active state           2 in new active state           2
 RANDOM_NUMBER_HOPPING_PROBA  0.79470406968576057     
 FOBSH| ACTIVE STATE =            2

 ENERGY| Total FORCE_EVAL ( MIXED ) energy (a.u.):             2.453641319119961

 FOBSH| CASE1: no hop and no trivial crossing
 ENTER integrator.F
 STEP NUMBER                  =           25
 CPU TIME [s]                 =    7.4391343630850315E-002   2.6452378643304106     

 *******************************************************************************
 ENSEMBLE TYPE                =                                              NVE
 STEP NUMBER                  =                                               25
 TIME [fs]                    =                                         2.500000
 CONSERVED QUANTITY [hartree] =                               0.485810666984E+01

                                              INSTANTANEOUS             AVERAGES
 CPU TIME [s]                 =                        0.07                 2.65
 ENERGY DRIFT PER ATOM [K]    =          0.298266023016E-01  -0.231811913513E-01
 POTENTIAL ENERGY[hartree]    =          0.245364131912E+01   0.232175876051E+01
 KINETIC ENERGY [hartree]     =          0.240446535072E+01   0.253619593244E+01
 TEMPERATURE [K]              =                     563.047              593.894
 *******************************************************************************

 FOBSH| *** OFF-DIAGONAL GRADIENT CALCULATION
 FOBSH| Put former active state           2 in new active state           2
 RANDOM_NUMBER_HOPPING_PROBA   8.0632420902034166E-002
 FOBSH| ACTIVE STATE =            2

 ENERGY| Total FORCE_EVAL ( MIXED ) energy (a.u.):             2.476118878439997

 FOBSH| CASE1: no hop and no trivial crossing
 ENTER integrator.F
 STEP NUMBER                  =           26
 CPU TIME [s]                 =    7.4273447506129742E-002   2.5463546175294764     

 *******************************************************************************
 ENSEMBLE TYPE                =                                              NVE
 STEP NUMBER                  =                                               26
 TIME [fs]                    =                                         2.600000
 CONSERVED QUANTITY [hartree] =                               0.485812920628E+01

                                              INSTANTANEOUS             AVERAGES
 CPU TIME [s]                 =                        0.07                 2.55
 ENERGY DRIFT PER ATOM [K]    =          0.377337532768E-01  -0.208383088656E-01
 POTENTIAL ENERGY[hartree]    =          0.247611887844E+01   0.232769568812E+01
 KINETIC ENERGY [hartree]     =          0.238201032784E+01   0.253026571688E+01
 TEMPERATURE [K]              =                     557.789              592.506
 *******************************************************************************

 FOBSH| *** OFF-DIAGONAL GRADIENT CALCULATION
 FOBSH| Put former active state           2 in new active state           2
 RANDOM_NUMBER_HOPPING_PROBA  0.81073704236962485     
 FOBSH| ACTIVE STATE =            2

 ENERGY| Total FORCE_EVAL ( MIXED ) energy (a.u.):             2.497812382566898

 FOBSH| CASE1: no hop and no trivial crossing
 ENTER integrator.F
 STEP NUMBER                  =           27
 CPU TIME [s]                 =    7.4688418768346310E-002   2.4548114249827679     

 *******************************************************************************
 ENSEMBLE TYPE                =                                              NVE
 STEP NUMBER                  =                                               27
 TIME [fs]                    =                                         2.700000
 CONSERVED QUANTITY [hartree] =                               0.485815109076E+01

                                              INSTANTANEOUS             AVERAGES
 CPU TIME [s]                 =                        0.07                 2.45
 ENERGY DRIFT PER ATOM [K]    =          0.454121556326E-01  -0.183845879583E-01
 POTENTIAL ENERGY[hartree]    =          0.249781238257E+01   0.233399630643E+01
 KINETIC ENERGY [hartree]     =          0.236033870819E+01   0.252397212397E+01
 TEMPERATURE [K]              =                     552.714              591.032
 *******************************************************************************

 FOBSH| *** OFF-DIAGONAL GRADIENT CALCULATION
 FOBSH| Put former active state           2 in new active state           2
 RANDOM_NUMBER_HOPPING_PROBA  0.96132350735256678     
 FOBSH| ACTIVE STATE =            2

 ENERGY| Total FORCE_EVAL ( MIXED ) energy (a.u.):             2.518368110009439

 FOBSH| CASE1: no hop and no trivial crossing
 ENTER integrator.F
 STEP NUMBER                  =           28
 CPU TIME [s]                 =    7.4355411343276501E-002   2.3697951387813574     

 *******************************************************************************
 ENSEMBLE TYPE                =                                              NVE
 STEP NUMBER                  =                                               28
 TIME [fs]                    =                                         2.800000
 CONSERVED QUANTITY [hartree] =                               0.485817202615E+01

                                              INSTANTANEOUS             AVERAGES
 CPU TIME [s]                 =                        0.07                 2.37
 ENERGY DRIFT PER ATOM [K]    =          0.527575613102E-01  -0.158437969130E-01
 POTENTIAL ENERGY[hartree]    =          0.251836811001E+01   0.234058101370E+01
 KINETIC ENERGY [hartree]     =          0.233980391614E+01   0.251739468797E+01
 TEMPERATURE [K]              =                     547.906              589.492
 *******************************************************************************

 FOBSH| *** OFF-DIAGONAL GRADIENT CALCULATION
 FOBSH| Put former active state           2 in new active state           2
 RANDOM_NUMBER_HOPPING_PROBA   8.1592189141357171E-002
 FOBSH| ACTIVE STATE =            2

 ENERGY| Total FORCE_EVAL ( MIXED ) energy (a.u.):             2.537447554503558

 FOBSH| CASE1: no hop and no trivial crossing
 ENTER integrator.F
 STEP NUMBER                  =           29
 CPU TIME [s]                 =    7.4439929798245430E-002   2.2906449591612503     

 *******************************************************************************
 ENSEMBLE TYPE                =                                              NVE
 STEP NUMBER                  =                                               29
 TIME [fs]                    =                                         2.900000
 CONSERVED QUANTITY [hartree] =                               0.485819172764E+01

                                              INSTANTANEOUS             AVERAGES
 CPU TIME [s]                 =                        0.07                 2.29
 ENERGY DRIFT PER ATOM [K]    =          0.596700404486E-01  -0.132398714867E-01
 POTENTIAL ENERGY[hartree]    =          0.253744755450E+01   0.234736951511E+01
 KINETIC ENERGY [hartree]     =          0.232074417313E+01   0.251061363574E+01
 TEMPERATURE [K]              =                     543.442              587.904
 *******************************************************************************

 FOBSH| *** OFF-DIAGONAL GRADIENT CALCULATION
 FOBSH| Put former active state           2 in new active state           2
 RANDOM_NUMBER_HOPPING_PROBA  0.55703783800449935     
 FOBSH| ACTIVE STATE =            2

 ENERGY| Total FORCE_EVAL ( MIXED ) energy (a.u.):             2.554732043397126

 FOBSH| CASE1: no hop and no trivial crossing
 ENTER integrator.F
 STEP NUMBER                  =           30
 CPU TIME [s]                 =    7.4471266940236092E-002   2.2167725027538832     

 *******************************************************************************
 ENSEMBLE TYPE                =                                              NVE
 STEP NUMBER                  =                                               30
 TIME [fs]                    =                                         3.000000
 CONSERVED QUANTITY [hartree] =                               0.485820992529E+01

                                              INSTANTANEOUS             AVERAGES
 CPU TIME [s]                 =                        0.07                 2.22
 ENERGY DRIFT PER ATOM [K]    =          0.660548810822E-01  -0.105967130678E-01
 POTENTIAL ENERGY[hartree]    =          0.255473204340E+01   0.235428159939E+01
 KINETIC ENERGY [hartree]     =          0.230347788189E+01   0.250370911061E+01
 TEMPERATURE [K]              =                     539.399              586.287
 *******************************************************************************

 FOBSH| *** OFF-DIAGONAL GRADIENT CALCULATION
 FOBSH! Reorgering: for state           5  we stay in with overlap  0.49635188047592332       instead of goind to            6 with overlap -0.86393313451502896     
 FOBSH! Reorgering: for state           6  we stay in with overlap  0.49697454633940147       instead of goind to            5 with overlap  0.86753541879084572     
 FOBSH| New map:            1           2           3           4           0           0           7           8
 FOBSH! New map again:           1           2           3           4           0           0           7           8
 FOBSH| Put former active state           2 in new active state           2
 RANDOM_NUMBER_HOPPING_PROBA  0.55020624805309337     
 FOBSH| ACTIVE STATE =            2

 ENERGY| Total FORCE_EVAL ( MIXED ) energy (a.u.):             2.569927033586433

 FOBSH| CASE1: no hop and no trivial crossing
 ENTER integrator.F
 STEP NUMBER                  =           31
 CPU TIME [s]                 =    7.4674595147371292E-002   2.1476725702504473     

 *******************************************************************************
 ENSEMBLE TYPE                =                                              NVE
 STEP NUMBER                  =                                               31
 TIME [fs]                    =                                         3.100000
 CONSERVED QUANTITY [hartree] =                               0.485822635133E+01

                                              INSTANTANEOUS             AVERAGES
 CPU TIME [s]                 =                        0.07                 2.15
 ENERGY DRIFT PER ATOM [K]    =          0.718181349246E-01  -0.793816958413E-02
 POTENTIAL ENERGY[hartree]    =          0.256992703359E+01   0.236123790372E+01
 KINETIC ENERGY [hartree]     =          0.228829931774E+01   0.249676040761E+01
 TEMPERATURE [K]              =                     535.845              584.660
 *******************************************************************************

 FOBSH| *** OFF-DIAGONAL GRADIENT CALCULATION
 FOBSH| Put former active state           2 in new active state           2
 RANDOM_NUMBER_HOPPING_PROBA  0.59113961433922868     
 FOBSH| ACTIVE STATE =            2

 ENERGY| Total FORCE_EVAL ( MIXED ) energy (a.u.):             2.582766237458888

 FOBSH| CASE1: no hop and no trivial crossing
 ENTER integrator.F
 STEP NUMBER                  =           32
 CPU TIME [s]                 =    7.4775033630430698E-002   2.0828945222310717     

 *******************************************************************************
 ENSEMBLE TYPE                =                                              NVE
 STEP NUMBER                  =                                               32
 TIME [fs]                    =                                         3.200000
 CONSERVED QUANTITY [hartree] =                               0.485824079256E+01

                                              INSTANTANEOUS             AVERAGES
 CPU TIME [s]                 =                        0.07                 2.08
 ENERGY DRIFT PER ATOM [K]    =          0.768849965588E-01  -0.528744564217E-02
 POTENTIAL ENERGY[hartree]    =          0.258276623746E+01   0.236816066415E+01
 KINETIC ENERGY [hartree]     =          0.227547455511E+01   0.248984522472E+01
 TEMPERATURE [K]              =                     532.842              583.040
 *******************************************************************************

 FOBSH| *** OFF-DIAGONAL GRADIENT CALCULATION
 FOBSH| Put former active state           2 in new active state           2
 RANDOM_NUMBER_HOPPING_PROBA  0.34464328472637651     
 FOBSH| ACTIVE STATE =            2

 ENERGY| Total FORCE_EVAL ( MIXED ) energy (a.u.):             2.593015237336299

 FOBSH| CASE1: no hop and no trivial crossing
 ENTER integrator.F
 STEP NUMBER                  =           33
 CPU TIME [s]                 =    7.4804416857659817E-002   2.0220433069167258     

 *******************************************************************************
 ENSEMBLE TYPE                =                                              NVE
 STEP NUMBER                  =                                               33
 TIME [fs]                    =                                         3.300000
 CONSERVED QUANTITY [hartree] =                               0.485825305210E+01

                                              INSTANTANEOUS             AVERAGES
 CPU TIME [s]                 =                        0.07                 2.02
 ENERGY DRIFT PER ATOM [K]    =          0.811863851088E-01  -0.266702652850E-02
 POTENTIAL ENERGY[hartree]    =          0.259301523734E+01   0.237497443909E+01
 KINETIC ENERGY [hartree]     =          0.226523781476E+01   0.248303893957E+01
 TEMPERATURE [K]              =                     530.445              581.447
 *******************************************************************************

 FOBSH| *** OFF-DIAGONAL GRADIENT CALCULATION
 FOBSH| Put former active state           2 in new active state           2
 RANDOM_NUMBER_HOPPING_PROBA  0.67867183363152239     
 FOBSH| ACTIVE STATE =            2

 ENERGY| Total FORCE_EVAL ( MIXED ) energy (a.u.):             2.600474671648199

 FOBSH| CASE1: no hop and no trivial crossing
 ENTER integrator.F
 STEP NUMBER                  =           34
 CPU TIME [s]                 =    7.4814765714108944E-002   1.9647718792342961     

 *******************************************************************************
 ENSEMBLE TYPE                =                                              NVE
 STEP NUMBER                  =                                               34
 TIME [fs]                    =                                         3.400000
 CONSERVED QUANTITY [hartree] =                               0.485826294446E+01

                                              INSTANTANEOUS             AVERAGES
 CPU TIME [s]                 =                        0.07                 1.96
 ENERGY DRIFT PER ATOM [K]    =          0.846572260919E-01  -0.986661573097E-04
 POTENTIAL ENERGY[hartree]    =          0.260047467165E+01   0.238160679887E+01
 KINETIC ENERGY [hartree]     =          0.225778827281E+01   0.247641391996E+01
 TEMPERATURE [K]              =                     528.700              579.895
 *******************************************************************************

 FOBSH| *** OFF-DIAGONAL GRADIENT CALCULATION
 FOBSH| Put former active state           2 in new active state           2
 RANDOM_NUMBER_HOPPING_PROBA  0.33097863659345467     
 FOBSH| ACTIVE STATE =            2

 ENERGY| Total FORCE_EVAL ( MIXED ) energy (a.u.):             2.604983048759296

 FOBSH| CASE1: no hop and no trivial crossing
 ENTER integrator.F
 STEP NUMBER                  =           35
 CPU TIME [s]                 =    7.4642248451709747E-002   1.9107681754976507     

 *******************************************************************************
 ENSEMBLE TYPE                =                                              NVE
 STEP NUMBER                  =                                               35
 TIME [fs]                    =                                         3.500000
 CONSERVED QUANTITY [hartree] =                               0.485827032801E+01

                                              INSTANTANEOUS             AVERAGES
 CPU TIME [s]                 =                        0.07                 1.91
 ENERGY DRIFT PER ATOM [K]    =          0.872478238534E-01   0.239694784300E-02
 POTENTIAL ENERGY[hartree]    =          0.260498304876E+01   0.238798897744E+01
 KINETIC ENERGY [hartree]     =          0.225328727925E+01   0.247003887308E+01
 TEMPERATURE [K]              =                     527.646              578.402
 *******************************************************************************

 FOBSH| *** OFF-DIAGONAL GRADIENT CALCULATION
 FOBSH| Put former active state           2 in new active state           2
 RANDOM_NUMBER_HOPPING_PROBA  0.80940816163944496     
 FOBSH| ACTIVE STATE =            2

 ENERGY| Total FORCE_EVAL ( MIXED ) energy (a.u.):             2.606419133325315

 FOBSH| CASE1: no hop and no trivial crossing
 ENTER integrator.F
 STEP NUMBER                  =           36
 CPU TIME [s]                 =    7.4400200508534908E-002   1.8597579539701752     

 *******************************************************************************
 ENSEMBLE TYPE                =                                              NVE
 STEP NUMBER                  =                                               36
 TIME [fs]                    =                                         3.600000
 CONSERVED QUANTITY [hartree] =                               0.485827479769E+01

                                              INSTANTANEOUS             AVERAGES
 CPU TIME [s]                 =                        0.07                 1.86
 ENERGY DRIFT PER ATOM [K]    =          0.888160578047E-01   0.479747867527E-02
 POTENTIAL ENERGY[hartree]    =          0.260641913333E+01   0.239405648177E+01
 KINETIC ENERGY [hartree]     =          0.225185566436E+01   0.246397822840E+01
 TEMPERATURE [K]              =                     527.311              576.983
 *******************************************************************************

 FOBSH| *** OFF-DIAGONAL GRADIENT CALCULATION
 FOBSH| Reordering: for state           1 old index was           2 with overlap  0.99787441423835976      and former  -6.5147978491718536E-002
 FOBSH| Reordering: for state           2 old index was           1 with overlap  0.99787441445740188      and former   6.5147491898358154E-002
 FOBSH| New map:            2           1           3           4           5           6           7           8
 FOBSH| Put former active state           2 in new active state           1
 RANDOM_NUMBER_HOPPING_PROBA  0.47443371654539679     
 FOBSH| ACTIVE STATE =            1

 ENERGY| Total FORCE_EVAL ( MIXED ) energy (a.u.):             2.604702976821790

 FOBSH| CASE1: no hop and no trivial crossing
 ENTER integrator.F
 STEP NUMBER                  =           37
 CPU TIME [s]                 =    7.4376896023750305E-002   1.8115044118635153     

 *******************************************************************************
 ENSEMBLE TYPE                =                                              NVE
 STEP NUMBER                  =                                               37
 TIME [fs]                    =                                         3.700000
 CONSERVED QUANTITY [hartree] =                               0.485827622234E+01

                                              INSTANTANEOUS             AVERAGES
 CPU TIME [s]                 =                        0.07                 1.81
 ENERGY DRIFT PER ATOM [K]    =          0.893159148829E-01   0.708176073493E-02
 POTENTIAL ENERGY[hartree]    =          0.260470297682E+01   0.239974963028E+01
 KINETIC ENERGY [hartree]     =          0.225357324552E+01   0.245829160724E+01
 TEMPERATURE [K]              =                     527.713              575.652
 *******************************************************************************

 FOBSH| *** OFF-DIAGONAL GRADIENT CALCULATION
 FOBSH| Put former active state           1 in new active state           1
 RANDOM_NUMBER_HOPPING_PROBA  0.13247404935644061     
 FOBSH| ACTIVE STATE =            1

 ENERGY| Total FORCE_EVAL ( MIXED ) energy (a.u.):             2.599798672771178

 FOBSH| CASE1: no hop and no trivial crossing
 ENTER integrator.F
 STEP NUMBER                  =           38
 CPU TIME [s]                 =    7.4725122191011906E-002   1.7657996937142386     

 *******************************************************************************
 ENSEMBLE TYPE                =                                              NVE
 STEP NUMBER                  =                                               38
 TIME [fs]                    =                                         3.800000
 CONSERVED QUANTITY [hartree] =                               0.485827558343E+01

                                              INSTANTANEOUS             AVERAGES
 CPU TIME [s]                 =                        0.07                 1.77
 ENERGY DRIFT PER ATOM [K]    =          0.890917434044E-01   0.923991817360E-02
 POTENTIAL ENERGY[hartree]    =          0.259979867277E+01   0.240501407877E+01
 KINETIC ENERGY [hartree]     =          0.225847691065E+01   0.245303332575E+01
 TEMPERATURE [K]              =                     528.862              574.420
 *******************************************************************************

 FOBSH| *** OFF-DIAGONAL GRADIENT CALCULATION
 FOBSH| Put former active state           1 in new active state           1
 RANDOM_NUMBER_HOPPING_PROBA  0.49222769201345745     
 FOBSH| ACTIVE STATE =            1

 ENERGY| Total FORCE_EVAL ( MIXED ) energy (a.u.):             2.591713201251138

 FOBSH| CASE1: no hop and no trivial crossing
 ENTER integrator.F
 STEP NUMBER                  =           39
 CPU TIME [s]                 =    7.4474332854151726E-002   1.7224323767691083     

 *******************************************************************************
 ENSEMBLE TYPE                =                                              NVE
 STEP NUMBER                  =                                               39
 TIME [fs]                    =                                         3.900000
 CONSERVED QUANTITY [hartree] =                               0.485827221902E+01

                                              INSTANTANEOUS             AVERAGES
 CPU TIME [s]                 =                        0.07                 1.72
 ENERGY DRIFT PER ATOM [K]    =          0.879113069030E-01   0.112571332692E-01
 POTENTIAL ENERGY[hartree]    =          0.259171320125E+01   0.240980123576E+01
 KINETIC ENERGY [hartree]     =          0.226655901777E+01   0.244825193324E+01
 TEMPERATURE [K]              =                     530.754              573.301
 *******************************************************************************

 FOBSH| *** OFF-DIAGONAL GRADIENT CALCULATION
 FOBSH| Put former active state           1 in new active state           1
 RANDOM_NUMBER_HOPPING_PROBA  0.66895639620323910     
 FOBSH| ACTIVE STATE =            1

 ENERGY| Total FORCE_EVAL ( MIXED ) energy (a.u.):             2.580497558960439

 FOBSH| CASE1: no hop and no trivial crossing
 ENTER integrator.F
 STEP NUMBER                  =           40
 CPU TIME [s]                 =    7.4743675068020821E-002   1.6812401592265811     

 *******************************************************************************
 ENSEMBLE TYPE                =                                              NVE
 STEP NUMBER                  =                                               40
 TIME [fs]                    =                                         4.000000
 CONSERVED QUANTITY [hartree] =                               0.485826616306E+01

                                              INSTANTANEOUS             AVERAGES
 CPU TIME [s]                 =                        0.07                 1.68
 ENERGY DRIFT PER ATOM [K]    =          0.857865074704E-01   0.131203676243E-01
 POTENTIAL ENERGY[hartree]    =          0.258049755896E+01   0.241406864384E+01
 KINETIC ENERGY [hartree]     =          0.227776860410E+01   0.244398985001E+01
 TEMPERATURE [K]              =                     533.379              572.303
 *******************************************************************************

 FOBSH| *** OFF-DIAGONAL GRADIENT CALCULATION
 FOBSH| Put former active state           1 in new active state           1
 RANDOM_NUMBER_HOPPING_PROBA  0.86101872639076216     
 FOBSH| ACTIVE STATE =            1

 ENERGY| Total FORCE_EVAL ( MIXED ) energy (a.u.):             2.566245934881399

 FOBSH| CASE1: no hop and no trivial crossing
 ENTER integrator.F
 STEP NUMBER                  =           41
 CPU TIME [s]                 =    7.4366000480949879E-002   1.6420481065742487     

 *******************************************************************************
 ENSEMBLE TYPE                =                                              NVE
 STEP NUMBER                  =                                               41
 TIME [fs]                    =                                         4.100000
 CONSERVED QUANTITY [hartree] =                               0.485825748426E+01

                                              INSTANTANEOUS             AVERAGES
 CPU TIME [s]                 =                        0.07                 1.64
 ENERGY DRIFT PER ATOM [K]    =          0.827414565277E-01   0.148184429634E-01
 POTENTIAL ENERGY[hartree]    =          0.256624593488E+01   0.241778028508E+01
 KINETIC ENERGY [hartree]     =          0.229201154938E+01   0.244028306219E+01
 TEMPERATURE [K]              =                     536.714              571.435
 *******************************************************************************

 FOBSH| *** OFF-DIAGONAL GRADIENT CALCULATION
 FOBSH! Reorgering: for state           3  we stay in with overlap  0.69230478203937174       instead of goind to            4 with overlap -0.72127599564819356     
 FOBSH! Reorgering: for state           4  we stay in with overlap -0.69212007079689863       instead of goind to            3 with overlap -0.72155656891935827     
 FOBSH| New map:            1           2           0           0           5           6           7           8
 FOBSH! New map again:           1           2           0           0           5           6           7           8
 FOBSH| Put former active state           1 in new active state           1
 RANDOM_NUMBER_HOPPING_PROBA  0.82887674016094826     
 FOBSH| ACTIVE STATE =            1

 ENERGY| Total FORCE_EVAL ( MIXED ) energy (a.u.):             2.549094670312768

 FOBSH| CASE1: no hop and no trivial crossing
 ENTER integrator.F
 STEP NUMBER                  =           42
 CPU TIME [s]                 =    7.4828481301665306E-002   1.6047333535915680     

 *******************************************************************************
 ENSEMBLE TYPE                =                                              NVE
 STEP NUMBER                  =                                               42
 TIME [fs]                    =                                         4.200000
 CONSERVED QUANTITY [hartree] =                               0.485824628125E+01

                                              INSTANTANEOUS             AVERAGES
 CPU TIME [s]                 =                        0.07                 1.60
 ENERGY DRIFT PER ATOM [K]    =          0.788107624774E-01   0.163420696185E-01
 POTENTIAL ENERGY[hartree]    =          0.254909467031E+01   0.242090681806E+01
 KINETIC ENERGY [hartree]     =          0.230915161094E+01   0.243716088478E+01
 TEMPERATURE [K]              =                     540.728              570.703
 *******************************************************************************

 FOBSH| *** OFF-DIAGONAL GRADIENT CALCULATION
 FOBSH| New map:            1           2           0           0           5           6           7           8
 FOBSH! New map again:           1           2           0           0           5           6           7           8
 FOBSH| Put former active state           1 in new active state           1
 RANDOM_NUMBER_HOPPING_PROBA  0.65660685430612087     
 FOBSH| ACTIVE STATE =            1

 ENERGY| Total FORCE_EVAL ( MIXED ) energy (a.u.):             2.529220635705324

 FOBSH| CASE1: no hop and no trivial crossing
 ENTER integrator.F
 STEP NUMBER                  =           43
 CPU TIME [s]                 =    7.4516389518976212E-002   1.5691469125666240     

 *******************************************************************************
 ENSEMBLE TYPE                =                                              NVE
 STEP NUMBER                  =                                               43
 TIME [fs]                    =                                         4.300000
 CONSERVED QUANTITY [hartree] =                               0.485823269405E+01

                                              INSTANTANEOUS             AVERAGES
 CPU TIME [s]                 =                        0.07                 1.57
 ENERGY DRIFT PER ATOM [K]    =          0.740435468534E-01   0.176839644379E-01
 POTENTIAL ENERGY[hartree]    =          0.252922063571E+01   0.242342574406E+01
 KINETIC ENERGY [hartree]     =          0.232901205835E+01   0.243464579579E+01
 TEMPERATURE [K]              =                     545.379              570.115
 *******************************************************************************

 FOBSH| *** OFF-DIAGONAL GRADIENT CALCULATION
 FOBSH| Put former active state           1 in new active state           1
 RANDOM_NUMBER_HOPPING_PROBA  0.14303911750953097     
 FOBSH| ACTIVE STATE =            1

 ENERGY| Total FORCE_EVAL ( MIXED ) energy (a.u.):             2.506838970569087

 FOBSH| CASE1: no hop and no trivial crossing
 ENTER integrator.F
 STEP NUMBER                  =           44
 CPU TIME [s]                 =    7.4335360899567604E-002   1.5351739227560093     

 *******************************************************************************
 ENSEMBLE TYPE                =                                              NVE
 STEP NUMBER                  =                                               44
 TIME [fs]                    =                                         4.400000
 CONSERVED QUANTITY [hartree] =                               0.485821688626E+01

                                              INSTANTANEOUS             AVERAGES
 CPU TIME [s]                 =                        0.07                 1.54
 ENERGY DRIFT PER ATOM [K]    =          0.684972125098E-01   0.188388109850E-01
 POTENTIAL ENERGY[hartree]    =          0.250683897057E+01   0.242532149920E+01
 KINETIC ENERGY [hartree]     =          0.235137791569E+01   0.243275334397E+01
 TEMPERATURE [K]              =                     550.616              569.671
 *******************************************************************************

 FOBSH| *** OFF-DIAGONAL GRADIENT CALCULATION
 FOBSH| Put former active state           1 in new active state           1
 RANDOM_NUMBER_HOPPING_PROBA  0.80954269957376690     
 FOBSH| ACTIVE STATE =            1

 ENERGY| Total FORCE_EVAL ( MIXED ) energy (a.u.):             2.482200419993010

 FOBSH| CASE1: no hop and no trivial crossing
 ENTER integrator.F
 STEP NUMBER                  =           45
 CPU TIME [s]                 =    7.4503198266029358E-002   1.5027145733228986     

 *******************************************************************************
 ENSEMBLE TYPE                =                                              NVE
 STEP NUMBER                  =                                               45
 TIME [fs]                    =                                         4.500000
 CONSERVED QUANTITY [hartree] =                               0.485819905904E+01

                                              INSTANTANEOUS             AVERAGES
 CPU TIME [s]                 =                        0.07                 1.50
 ENERGY DRIFT PER ATOM [K]    =          0.622423425468E-01   0.198033339086E-01
 POTENTIAL ENERGY[hartree]    =          0.248220041999E+01   0.242658547522E+01
 KINETIC ENERGY [hartree]     =          0.237599863905E+01   0.243149212831E+01
 TEMPERATURE [K]              =                     556.381              569.376
 *******************************************************************************

 FOBSH| *** OFF-DIAGONAL GRADIENT CALCULATION
 FOBSH| Put former active state           1 in new active state           1
 RANDOM_NUMBER_HOPPING_PROBA  0.66740105203805000     
 FOBSH| ACTIVE STATE =            1

 ENERGY| Total FORCE_EVAL ( MIXED ) energy (a.u.):             2.455588229175059

 FOBSH| CASE1: no hop and no trivial crossing
 ENTER integrator.F
 STEP NUMBER                  =           46
 CPU TIME [s]                 =    7.4506523087620735E-002   1.4716665722308273     

 *******************************************************************************
 ENSEMBLE TYPE                =                                              NVE
 STEP NUMBER                  =                                               46
 TIME [fs]                    =                                         4.600000
 CONSERVED QUANTITY [hartree] =                               0.485817944492E+01

                                              INSTANTANEOUS             AVERAGES
 CPU TIME [s]                 =                        0.07                 1.47
 ENERGY DRIFT PER ATOM [K]    =          0.553605185861E-01   0.205763161842E-01
 POTENTIAL ENERGY[hartree]    =          0.245558822918E+01   0.242721596987E+01
 KINETIC ENERGY [hartree]     =          0.240259121575E+01   0.243086384760E+01
 TEMPERATURE [K]              =                     562.608              569.229
 *******************************************************************************

 FOBSH| *** OFF-DIAGONAL GRADIENT CALCULATION
 FOBSH| Put former active state           1 in new active state           1
 RANDOM_NUMBER_HOPPING_PROBA  0.70255075677543821     
 FOBSH| ACTIVE STATE =            1

 ENERGY| Total FORCE_EVAL ( MIXED ) energy (a.u.):             2.427314502452648

 FOBSH| CASE1: no hop and no trivial crossing
 ENTER integrator.F
 STEP NUMBER                  =           47
 CPU TIME [s]                 =    7.4325790628790855E-002   1.4419359173031243     

 *******************************************************************************
 ENSEMBLE TYPE                =                                              NVE
 STEP NUMBER                  =                                               47
 TIME [fs]                    =                                         4.700000
 CONSERVED QUANTITY [hartree] =                               0.485815828284E+01

                                              INSTANTANEOUS             AVERAGES
 CPU TIME [s]                 =                        0.07                 1.44
 ENERGY DRIFT PER ATOM [K]    =          0.479355757817E-01   0.211584280905E-01
 POTENTIAL ENERGY[hartree]    =          0.242731450245E+01   0.242721806631E+01
 KINETIC ENERGY [hartree]     =          0.243084378039E+01   0.243086342064E+01
 TEMPERATURE [K]              =                     569.224              569.229
 *******************************************************************************

 FOBSH| *** OFF-DIAGONAL GRADIENT CALCULATION
 FOBSH| Put former active state           1 in new active state           1
 RANDOM_NUMBER_HOPPING_PROBA  0.55743071458898230     
 FOBSH| ACTIVE STATE =            1

 ENERGY| Total FORCE_EVAL ( MIXED ) energy (a.u.):             2.397716260091043

 FOBSH| CASE1: no hop and no trivial crossing
 ENTER integrator.F
 STEP NUMBER                  =           48
[...]
 CPU TIME [s]                 =                        0.04                 0.41
 ENERGY DRIFT PER ATOM [K]    =          0.360284682451E-01   0.166560816786E-01
 POTENTIAL ENERGY[hartree]    =          0.248716473035E+01   0.239051154913E+01
 KINETIC ENERGY [hartree]     =          0.237095961564E+01   0.246755746486E+01
 TEMPERATURE [K]              =                     555.201              577.821
 *******************************************************************************

 FOBSH| *** OFF-DIAGONAL GRADIENT CALCULATION
 FOBSH| Put former active state           2 in new active state           2
 RANDOM_NUMBER_HOPPING_PROBA  0.55064399343308779     
 FOBSH| ACTIVE STATE =            2

 ENERGY| Total FORCE_EVAL ( MIXED ) energy (a.u.):             2.517983031718931

 FOBSH| CASE1: no hop and no trivial crossing
 ENTER integrator.F
 STEP NUMBER                  =          191
 CPU TIME [s]                 =    3.9770369417965412E-002  0.41073174109555716     

 *******************************************************************************
 ENSEMBLE TYPE                =                                              NVE
 STEP NUMBER                  =                                              191
 TIME [fs]                    =                                        19.100000
 CONSERVED QUANTITY [hartree] =                               0.485814843452E+01

                                              INSTANTANEOUS             AVERAGES
 CPU TIME [s]                 =                        0.04                 0.41
 ENERGY DRIFT PER ATOM [K]    =          0.444801852385E-01   0.168017576135E-01
 POTENTIAL ENERGY[hartree]    =          0.251798303172E+01   0.239117893909E+01
 KINETIC ENERGY [hartree]     =          0.234016540280E+01   0.246689049072E+01
 TEMPERATURE [K]              =                     547.990              577.665
 *******************************************************************************

 FOBSH| *** OFF-DIAGONAL GRADIENT CALCULATION
 FOBSH| Put former active state           2 in new active state           2
 RANDOM_NUMBER_HOPPING_PROBA  0.67340245960925516     
 FOBSH| ACTIVE STATE =            2

 ENERGY| Total FORCE_EVAL ( MIXED ) energy (a.u.):             2.548291353276908

 FOBSH| CASE1: no hop and no trivial crossing
 ENTER integrator.F
 STEP NUMBER                  =          192
 CPU TIME [s]                 =    3.9736713282763958E-002  0.40879947532569882     

 *******************************************************************************
 ENSEMBLE TYPE                =                                              NVE
 STEP NUMBER                  =                                              192
 TIME [fs]                    =                                        19.200000
 CONSERVED QUANTITY [hartree] =                               0.485817222959E+01

                                              INSTANTANEOUS             AVERAGES
 CPU TIME [s]                 =                        0.04                 0.41
 ENERGY DRIFT PER ATOM [K]    =          0.528289410243E-01   0.169893991938E-01
 POTENTIAL ENERGY[hartree]    =          0.254829135328E+01   0.239199723291E+01
 KINETIC ENERGY [hartree]     =          0.230988087631E+01   0.246607273231E+01
 TEMPERATURE [K]              =                     540.899              577.474
 *******************************************************************************

 FOBSH| *** OFF-DIAGONAL GRADIENT CALCULATION
 FOBSH| Put former active state           2 in new active state           2
 RANDOM_NUMBER_HOPPING_PROBA  0.38689423247100796     
 FOBSH| ACTIVE STATE =            2

 ENERGY| Total FORCE_EVAL ( MIXED ) energy (a.u.):             2.577713225224473

 FOBSH| CASE1: no hop and no trivial crossing
 ENTER integrator.F
 STEP NUMBER                  =          193
 CPU TIME [s]                 =    3.9532646536827087E-002  0.40688617569466839     

 *******************************************************************************
 ENSEMBLE TYPE                =                                              NVE
 STEP NUMBER                  =                                              193
 TIME [fs]                    =                                        19.300000
 CONSERVED QUANTITY [hartree] =                               0.485819550027E+01

                                              INSTANTANEOUS             AVERAGES
 CPU TIME [s]                 =                        0.04                 0.41
 ENERGY DRIFT PER ATOM [K]    =          0.609937080167E-01   0.172174007939E-01
 POTENTIAL ENERGY[hartree]    =          0.257771322522E+01   0.239295949194E+01
 KINETIC ENERGY [hartree]     =          0.228048227504E+01   0.246511112372E+01
 TEMPERATURE [K]              =                     534.014              577.248
 *******************************************************************************

 FOBSH| *** OFF-DIAGONAL GRADIENT CALCULATION
 FOBSH| Put former active state           2 in new active state           2
 RANDOM_NUMBER_HOPPING_PROBA  0.18591696202539099     
 FOBSH| ACTIVE STATE =            2

 ENERGY| Total FORCE_EVAL ( MIXED ) energy (a.u.):             2.605880666093961

 FOBSH| CASE1: no hop and no trivial crossing
 ENTER integrator.F
 STEP NUMBER                  =          194
 CPU TIME [s]                 =    3.9410311728715897E-002  0.40499197021030775     

 *******************************************************************************
 ENSEMBLE TYPE                =                                              NVE
 STEP NUMBER                  =                                              194
 TIME [fs]                    =                                        19.400000
 CONSERVED QUANTITY [hartree] =                               0.485821795056E+01

                                              INSTANTANEOUS             AVERAGES
 CPU TIME [s]                 =                        0.04                 0.40
 ENERGY DRIFT PER ATOM [K]    =          0.688706342948E-01   0.174836545748E-01
 POTENTIAL ENERGY[hartree]    =          0.260588066609E+01   0.239405702377E+01
 KINETIC ENERGY [hartree]     =          0.225233728447E+01   0.246401435136E+01
 TEMPERATURE [K]              =                     527.424              576.992
 *******************************************************************************

 FOBSH| *** OFF-DIAGONAL GRADIENT CALCULATION
 FOBSH| Put former active state           2 in new active state           2
 RANDOM_NUMBER_HOPPING_PROBA  0.67934094329898165     
 FOBSH| ACTIVE STATE =            2

 ENERGY| Total FORCE_EVAL ( MIXED ) energy (a.u.):             2.632438723072514

 FOBSH| CASE1: no hop and no trivial crossing
 ENTER integrator.F
 STEP NUMBER                  =          195
 CPU TIME [s]                 =    3.9794245734810829E-002  0.40311916136684367     

 *******************************************************************************
 ENSEMBLE TYPE                =                                              NVE
 STEP NUMBER                  =                                              195
 TIME [fs]                    =                                        19.500000
 CONSERVED QUANTITY [hartree] =                               0.485823928503E+01

                                              INSTANTANEOUS             AVERAGES
 CPU TIME [s]                 =                        0.04                 0.40
 ENERGY DRIFT PER ATOM [K]    =          0.763560631601E-01   0.177855643624E-01
 POTENTIAL ENERGY[hartree]    =          0.263243872307E+01   0.239527949402E+01
 KINETIC ENERGY [hartree]     =          0.222580056196E+01   0.246279274218E+01
 TEMPERATURE [K]              =                     521.210              576.706
 *******************************************************************************

 FOBSH| *** OFF-DIAGONAL GRADIENT CALCULATION
 FOBSH| Put former active state           2 in new active state           2
 RANDOM_NUMBER_HOPPING_PROBA  0.77879370283081439     
 FOBSH| ACTIVE STATE =            2

 ENERGY| Total FORCE_EVAL ( MIXED ) energy (a.u.):             2.657050250079254

 FOBSH| CASE1: no hop and no trivial crossing
 ENTER integrator.F
 STEP NUMBER                  =          196
 CPU TIME [s]                 =    3.9565984159708023E-002  0.40126429821782766     

 *******************************************************************************
 ENSEMBLE TYPE                =                                              NVE
 STEP NUMBER                  =                                              196
 TIME [fs]                    =                                        19.600000
 CONSERVED QUANTITY [hartree] =                               0.485825921345E+01

                                              INSTANTANEOUS             AVERAGES
 CPU TIME [s]                 =                        0.04                 0.40
 ENERGY DRIFT PER ATOM [K]    =          0.833481604890E-01   0.181200674039E-01
 POTENTIAL ENERGY[hartree]    =          0.265705025008E+01   0.239661505910E+01
 KINETIC ENERGY [hartree]     =          0.220120896337E+01   0.246145813106E+01
 TEMPERATURE [K]              =                     515.451              576.393
 *******************************************************************************

 FOBSH| *** OFF-DIAGONAL GRADIENT CALCULATION
 FOBSH| Put former active state           2 in new active state           2
 RANDOM_NUMBER_HOPPING_PROBA   9.1225840145483336E-002
 FOBSH| ACTIVE STATE =            2

 ENERGY| Total FORCE_EVAL ( MIXED ) energy (a.u.):             2.679400326638885

 FOBSH| CASE1: no hop and no trivial crossing
 ENTER integrator.F
 STEP NUMBER                  =          197
 CPU TIME [s]                 =    3.9552482776343822E-002  0.39942819763183030     

 *******************************************************************************
 ENSEMBLE TYPE                =                                              NVE
 STEP NUMBER                  =                                              197
 TIME [fs]                    =                                        19.700000
 CONSERVED QUANTITY [hartree] =                               0.485827750709E+01

                                              INSTANTANEOUS             AVERAGES
 CPU TIME [s]                 =                        0.04                 0.40
 ENERGY DRIFT PER ATOM [K]    =          0.897666806816E-01   0.184837557962E-01
 POTENTIAL ENERGY[hartree]    =          0.267940032664E+01   0.239805051731E+01
 KINETIC ENERGY [hartree]     =          0.217887718045E+01   0.246002370999E+01
 TEMPERATURE [K]              =                     510.222              576.057
 *******************************************************************************

 FOBSH| *** OFF-DIAGONAL GRADIENT CALCULATION
 FOBSH| Put former active state           2 in new active state           2
 RANDOM_NUMBER_HOPPING_PROBA  0.31757186214787592     
 FOBSH| ACTIVE STATE =            2

 ENERGY| Total FORCE_EVAL ( MIXED ) energy (a.u.):             2.699200086549099

 FOBSH| CASE1: no hop and no trivial crossing
 ENTER integrator.F
 STEP NUMBER                  =          198
 CPU TIME [s]                 =    3.9524833671748638E-002  0.39761050387445618     

 *******************************************************************************
 ENSEMBLE TYPE                =                                              NVE
 STEP NUMBER                  =                                              198
 TIME [fs]                    =                                        19.800000
 CONSERVED QUANTITY [hartree] =                               0.485829392901E+01

                                              INSTANTANEOUS             AVERAGES
 CPU TIME [s]                 =                        0.04                 0.40
 ENERGY DRIFT PER ATOM [K]    =          0.955284881049E-01   0.188728706058E-01
 POTENTIAL ENERGY[hartree]    =          0.269920008655E+01   0.239957147473E+01
 KINETIC ENERGY [hartree]     =          0.215909384246E+01   0.245850386218E+01
 TEMPERATURE [K]              =                     505.589              575.701
 *******************************************************************************

 FOBSH| *** OFF-DIAGONAL GRADIENT CALCULATION
 FOBSH| Put former active state           2 in new active state           2
 RANDOM_NUMBER_HOPPING_PROBA  0.93838905524111438     
 FOBSH| ACTIVE STATE =            2

 ENERGY| Total FORCE_EVAL ( MIXED ) energy (a.u.):             2.716190382966201

 FOBSH| CASE1: no hop and no trivial crossing
 ENTER integrator.F
 STEP NUMBER                  =          199
 CPU TIME [s]                 =    3.9710921235382557E-002  0.39581201350943568     

 *******************************************************************************
 ENSEMBLE TYPE                =                                              NVE
 STEP NUMBER                  =                                              199
 TIME [fs]                    =                                        19.900000
 CONSERVED QUANTITY [hartree] =                               0.485830828108E+01

                                              INSTANTANEOUS             AVERAGES
 CPU TIME [s]                 =                        0.04                 0.40
 ENERGY DRIFT PER ATOM [K]    =          0.100564064869E+00   0.192833791197E-01
 POTENTIAL ENERGY[hartree]    =          0.271619038297E+01   0.240116252452E+01
 KINETIC ENERGY [hartree]     =          0.214211789811E+01   0.245691398296E+01
 TEMPERATURE [K]              =                     501.614              575.329
 *******************************************************************************

 FOBSH| *** OFF-DIAGONAL GRADIENT CALCULATION
 FOBSH| Put former active state           2 in new active state           2
 RANDOM_NUMBER_HOPPING_PROBA  0.38739698207438283     
 FOBSH| ACTIVE STATE =            2

 ENERGY| Total FORCE_EVAL ( MIXED ) energy (a.u.):             2.730144997177283

 FOBSH| CASE1: no hop and no trivial crossing
 ENTER integrator.F
 STEP NUMBER                  =          200
 CPU TIME [s]                 =    3.9412947371602058E-002  0.39403001817874655     

 *******************************************************************************
 ENSEMBLE TYPE                =                                              NVE
 STEP NUMBER                  =                                              200
 TIME [fs]                    =                                        20.000000
 CONSERVED QUANTITY [hartree] =                               0.485832036865E+01

                                              INSTANTANEOUS             AVERAGES
 CPU TIME [s]                 =                        0.04                 0.39
 ENERGY DRIFT PER ATOM [K]    =          0.104805120053E+00   0.197109878243E-01
 POTENTIAL ENERGY[hartree]    =          0.273014499718E+01   0.240280743689E+01
 KINETIC ENERGY [hartree]     =          0.212817537147E+01   0.245527028990E+01
 TEMPERATURE [K]              =                     498.349              574.944
 *******************************************************************************


 -------------------------------------------------------------------------------
 -                                                                             -
 -                                DBCSR STATISTICS                             -
 -                                                                             -
 -------------------------------------------------------------------------------
 COUNTER                                    TOTAL       BLAS       SMM       ACC
 flops total                                    0       0.0%      0.0%      0.0%
 flops max/rank                                 0       0.0%      0.0%      0.0%
 matmuls inhomo. stacks                         0       0.0%      0.0%      0.0%
 matmuls total                                  0       0.0%      0.0%      0.0%
 number of processed stacks                     0       0.0%      0.0%      0.0%
 average stack size                                     0.0       0.0       0.0
 marketing flops                     0.000000E+00
 -------------------------------------------------------------------------------

 MEMORY| Estimated peak process memory [MiB]                                 122

 -------------------------------------------------------------------------------
 -                                                                             -
 -                           R E F E R E N C E S                               -
 -                                                                             -
 -------------------------------------------------------------------------------
 
 CP2K version 4.0 (Development Version), the CP2K developers group (2015).
 CP2K is freely available from https://www.cp2k.org/ .

 Borstnik, U; VandeVondele, J; Weber, V; Hutter, J. 
 PARALLEL COMPUTING, 40 (5-6), 47-58 (2014). 
 Sparse matrix multiplication: The distributed block-compressed sparse
 row library.
 http://dx.doi.org/10.1016/j.parco.2014.03.012


 Hutter, J; Iannuzzi, M; Schiffmann, F; VandeVondele, J. 
 WILEY INTERDISCIPLINARY REVIEWS-COMPUTATIONAL MOLECULAR SCIENCE, 4 (1), 15-25 (2014). 
 CP2K: atomistic simulations of condensed matter systems.
 http://dx.doi.org/10.1002/wcms.1159


 Frigo, M; Johnson, SG. 
 PROCEEDINGS OF THE IEEE, 93 (2), 216-231 (2005). 
 The design and implementation of FFTW3.
 http://dx.doi.org/10.1109/JPROC.2004.840301


 -------------------------------------------------------------------------------
 -                                                                             -
 -                                T I M I N G                                  -
 -                                                                             -
 -------------------------------------------------------------------------------
 SUBROUTINE                       CALLS  ASD         SELF TIME        TOTAL TIME
                                MAXIMUM       AVERAGE  MAXIMUM  AVERAGE  MAXIMUM
 CP2K                                 1  1.0    0.022    0.022   88.744   88.744
 qs_mol_dyn_low                       1  2.0   13.923   13.923   78.840   78.840
 parser_read_line               2346106  3.0   18.020   18.020   55.154   55.154
 parser_read_line_low              2509  4.3   37.113   37.113   37.133   37.133
 velocity_verlet                    200  3.0   10.079   10.079   14.131   14.131
 topology_control                     3  4.0    0.772    0.772    9.243    9.243
 connectivity_control                 3  5.0    0.006    0.006    8.191    8.191
 read_topology_psf                  150  6.0    3.656    3.656    8.164    8.164
 fist_create_force_env                2  2.0    0.000    0.000    7.127    7.127
 fist_init                            2  3.0    0.001    0.001    7.127    7.127
 fist_calc_energy_force             414  4.0    0.018    0.018    4.344    4.344
 force_nonbond                      207  5.0    3.291    3.291    3.291    3.291
 mixed_create_force_env               1  2.0    0.000    0.000    2.746    2.746
 mixed_init                           1  3.0    0.000    0.000    2.745    2.745
 -------------------------------------------------------------------------------

 The number of warnings for this run is : 1
 
 -------------------------------------------------------------------------------
  **** **** ******  **  PROGRAM ENDED AT                 2021-02-12 16:45:05.549
 ***** ** ***  *** **   PROGRAM RAN ON                   bulstake.phys.ucl.ac.uk
 **    ****   ******    PROGRAM RAN BY                                 sgiannini
 ***** **    ** ** **   PROGRAM PROCESS ID                                  3513
  **** **  *******  **  PROGRAM STOPPED IN /scratch/sgiannini/FOB-SH-REGTESTS_/3
                                           3-XXX_code_extension_V2/run-fssh-ADIA
                                           B_INIT
