#     Step Nr.          Time[fs]        Kin.[a.u.]          Temp[K]            Pot.[a.u.]        Cons Qty[a.u.]        UsedTime[s]
         0            0.000000         2.412123729       564.840579357         2.446981655         4.859105384         0.000000000
         1            0.100000         2.440674945       571.526341349         2.418407460         4.859082405         0.447619716
         2            0.200000         2.467876239       577.895995904         2.391186474         4.859062713         0.073455574
         3            0.300000         2.493371475       583.866147258         2.365672135         4.859043610         0.056681673
         4            0.400000         2.516858926       589.366141116         2.342167336         4.859026262         0.067969281
         5            0.500000         2.538063705       594.331607567         2.320947252         4.859010957         0.101519618
         6            0.600000         2.556743583       598.705824780         2.302254303         4.858997886         0.100531881
         7            0.700000         2.572692311       602.440495782         2.286294924         4.858987235         0.088995763
         8            0.800000         2.585742251       605.496365398         2.273236869         4.858979119         0.099868448
         9            0.900000         2.595766484       607.843713335         2.263207166         4.858973650         0.122346059
        10            1.000000         2.602680358       609.462716770         2.256290521         4.858970879         0.090461664
        11            1.100000         2.606442485       610.343683976         2.252528360         4.858970844         0.047779304
        12            1.200000         2.607055151       610.487150367         2.251918361         4.858973512         0.046842732
        13            1.300000         2.604564109       609.903829678         2.254414746         4.858978854         0.075664905
        14            1.400000         2.599057852       608.614444181         2.259928931         4.858986783         0.054334265
        15            1.500000         2.590666352       606.649429025         2.268330844         4.858997196         0.065292217
        16            1.600000         2.579559232       604.048504469         2.279450697         4.859009930         0.102568520
        17            1.700000         2.565943341       600.860107605         2.293081468         4.859024809         0.090137407
        18            1.800000         2.550059881       597.140720118         2.308981749         4.859041630         0.061037052
        19            1.900000         2.532181133       592.954101294         2.326879034         4.859060167         0.058167337
        20            2.000000         2.512606763       588.370423433         2.346473390         4.859080153         0.098195990
        21            2.100000         2.491659714       583.465308763         2.367441603         4.859101317         0.102461971
        22            2.200000         2.469681781       578.318794852         2.389441590         4.859123371         0.087774505
        23            2.300000         2.447029004       573.014254575         2.412117023         4.859146028         0.045810835
        24            2.400000         2.424066869       567.637272466         2.435102089         4.859168957         0.074783071
        25            2.500000         2.401165347       562.274484346         2.458026497         4.859191845         0.098171381
        26            2.600000         2.378693830       557.012388938         2.480520548         4.859214378         0.088593240
        27            2.700000         2.357016124       551.936178380         2.502220138         4.859236262         0.090095838
        28            2.800000         2.336485613       547.128603440         2.522771581         4.859257194         0.048011300
        29            2.900000         2.317440444       542.668846935         2.541836444         4.859276888         0.089369657
        30            3.000000         2.300198922       538.631445840         2.559096156         4.859295078         0.097725653
        31            3.100000         2.285055196       535.085280020         2.574256296         4.859311492         0.102997432
        32            3.200000         2.272275173       532.092616075         2.587050748         4.859325921         0.059837098
        33            3.300000         2.262092875       529.708254525         2.597245285         4.859338160         0.047025532
        34            3.400000         2.254707237       527.978779289         2.604640793         4.859348030         0.099967537
        35            3.500000         2.250279324       526.941906818         2.609076068         4.859355393         0.095581713
        36            3.600000         2.248930072       526.625956011         2.610430071         4.859360143         0.090115338
        37            3.700000         2.250738574       527.049448054         2.608623624         4.859362197         0.060089845
        38            3.800000         2.255740928       528.220835942         2.603620620         4.859361548         0.065921989
        39            3.900000         2.263929608       530.138357345         2.595428564         4.859358172         0.097715742
        40            4.000000         2.275253429       532.790026276         2.584098681         4.859352110         0.097125303
        41            4.100000         2.289618037       536.153748288         2.569725383         4.859343421         0.085515067
        42            4.200000         2.306886927       540.197558166         2.552445274         4.859332201         0.051025308
        43            4.300000         2.326883022       544.879990245         2.532435564         4.859318585         0.059570997
        44            4.400000         2.349390843       550.150586804         2.509911892         4.859302735         0.097706317
        45            4.500000         2.374159152       555.950515686         2.485125692         4.859284844         0.076072514
        46            4.600000         2.400904026       562.213291493         2.458361122         4.859265149         0.047744773
        47            4.700000         2.429312460       568.865618589         2.429931427         4.859243887         0.044343055
        48            4.800000         2.459046302       575.828313076         2.400175029         4.859221331         0.079609080
        49            4.900000         2.489746451       583.017285196         2.369451309         4.859197761         0.100299301
        50            5.000000         2.521037389       590.344600616         2.338136073         4.859173462         0.060225709
        51            5.100000         2.552531870       597.719579281         2.306616874         4.859148744         0.050099999
        52            5.200000         2.583835784       605.049933136         2.275288135         4.859123919         0.054927875
        53            5.300000         2.614553178       612.242943426         2.244546128         4.859099307         0.112783945
        54            5.400000         2.644291448       619.206674727         2.214783795         4.859075243         0.085989628
        55            5.500000         2.672666708       625.851233818         2.186385398         4.859052106         0.101000963
        56            5.600000         2.699309343       632.090068551         2.159720932         4.859030275         0.099538892
        57            5.700000         2.723869838       637.841334150         2.135140300         4.859010138         0.060991427
        58            5.800000         2.746024825       643.029308281         2.112967320         4.858992145         0.049097709
        59            5.900000         2.765483369       647.585863624         2.093493404         4.858976773         0.049504916
        60            6.000000         2.781993483       651.451992935         2.076970894         4.858964377         0.091320870
        61            6.100000         2.795344699       654.578411730         2.063609301         4.858954000         0.080637339
        62            6.200000         2.804644315       656.756077865         2.054299666         4.858943981         0.178725775
        63            6.300000         2.810989251       658.241854535         2.047949204         4.858938454         0.056274873
        64            6.400000         2.813653755       658.865794527         2.045281563         4.858935318         0.045030862
        65            6.500000         2.816388000       659.506065341         2.042546627         4.858934627         0.161781090
        66            6.600000         2.811879941       658.450425263         2.047056043         4.858935984         0.100033319
        67            6.700000         2.803647058       656.522552985         2.055293129         4.858940187         0.200787888
        68            6.800000         2.791753115       653.737380097         2.067194071         4.858947187         0.071201581
        69            6.900000         2.776306331       650.120247802         2.082650581         4.858956912         0.045264456
        70            7.000000         2.757458127       645.706614079         2.101511102         4.858969229         0.044312567
        71            7.100000         2.735401345       640.541636326         2.123582654         4.858983999         0.081130022
        72            7.200000         2.710367912       634.679624156         2.148633146         4.859001058         0.042991724
        73            7.300000         2.682625996       628.183373729         2.176394180         4.859020176         0.042765159
        74            7.400000         2.652476759       621.123407325         2.206564370         4.859041129         0.057907806
        75            7.500000         2.620250665       613.577108833         2.238812999         4.859063665         0.070169107
        76            7.600000         2.586303459       605.627782016         2.272784056         4.859087515         0.043935026
        77            7.700000         2.551011819       597.363632928         2.308100568         4.859112387         0.041919485
        78            7.800000         2.514768754       588.876690939         2.344369222         4.859137976         0.087318845
        79            7.900000         2.477978802       580.261686193         2.381185168         4.859163970         0.044158107
        80            8.000000         2.441053056       571.614882661         2.418136995         4.859190050         0.043994407
        81            8.100000         2.404404151       563.032906350         2.454811767         4.859215918         0.070463548
        82            8.200000         2.368441236       554.611566348         2.490800016         4.859241252         0.055551909
        83            8.300000         2.333564965       546.444683070         2.525700768         4.859265732         0.044646394
        84            8.400000         2.300162604       538.622941299         2.559126464         4.859289068         0.045061101
        85            8.500000         2.268603289       531.232780837         2.590707698         4.859310987         0.080334418
        86            8.600000         2.239233587       524.355356026         2.620097621         4.859331208         0.043954630
        87            8.700000         2.212373259       518.065544548         2.646976245         4.859349504         0.044612432
        88            8.800000         2.188311404       512.431044236         2.671054242         4.859365647         0.077079106
        89            8.900000         2.167302984       507.511558545         2.692076470         4.859379455         0.058394480
        90            9.000000         2.149565734       503.358074123         2.709825020         4.859390755         0.044556583
        91            9.100000         2.135277608       500.012261589         2.724121813         4.859399420         0.060418818
        92            9.200000         2.124574622       497.505972088         2.734830727         4.859405349         0.068251505
        93            9.300000         2.117549251       495.860859607         2.741859206         4.859408457         0.043887501
        94            9.400000         2.114249319       495.088123246         2.745159389         4.859408708         0.044865347
        95            9.500000         2.114677172       495.188312615         2.744728864         4.859406037         0.086653180
        96            9.600000         2.118788754       496.151110603         2.740611516         4.859400270         0.045929940
        97            9.700000         2.126491294       497.954793986         2.732899740         4.859391034         0.044395139
        98            9.800000         2.137644882       500.566599845         2.721735413         4.859380295         0.057427956
        99            9.900000         2.152079873       503.946803120         2.707288810         4.859368682         0.070383821
       100           10.000000         2.169837049       508.104953705         2.689516892         4.859353941         0.086762620
       101           10.100000         2.190273955       512.890609542         2.669062221         4.859336177         0.087966720
       102           10.200000         2.213284326       518.278886730         2.646032446         4.859316772         0.044772280
       103           10.300000         2.238558438       524.197258227         2.620737368         4.859295806         0.044397186
       104           10.400000         2.265762004       530.567444709         2.593511525         4.859273529         0.068485078
       105           10.500000         2.294539745       537.306251349         2.564710433         4.859250177         0.055619968
       106           10.600000         2.324519677       544.326572254         2.534706394         4.859226071         0.045988094
       107           10.700000         2.355317770       551.538479525         2.503883721         4.859201491         0.044001054
       108           10.800000         2.386542766       558.850353504         2.472633982         4.859176748         0.080961023
       109           10.900000         2.417801117       566.170038054         2.441351044         4.859152160         0.044499396
       110           11.000000         2.448701947       573.406003162         2.410426095         4.859128042         0.043796415
       111           11.100000         2.478861929       580.468485589         2.380242753         4.859104682         0.044172667
       112           11.200000         2.507910060       587.270608859         2.351172298         4.859082357         0.044504455
       113           11.300000         2.535492345       593.729479148         2.323569008         4.859061353         0.043045311
       114           11.400000         2.561276165       599.767207413         2.297765775         4.859041940         0.069189345
       115           11.500000         2.584954375       605.311870605         2.274069980         4.859024354         0.055056339
       116           11.600000         2.606249114       610.298403001         2.252759695         4.859008809         0.046278215
       117           11.700000         2.624915188       614.669387720         2.234080284         4.858995473         0.057015807
       118           11.800000         2.640743025       618.375749988         2.218241481         4.858984506         0.072787324
       119           11.900000         2.653561175       621.377341988         2.205414866         4.858976041         0.045424493
       120           12.000000         2.663238318       623.643412905         2.195731853         4.858970172         0.044516416
       121           12.100000         2.669684741       625.152954411         2.189282219         4.858966959         0.084913201
       122           12.200000         2.672853289       625.894925006         2.186113130         4.858966419         0.045172406
       123           12.300000         2.672739760       625.868340130         2.186228793         4.858968553         0.045759303
       124           12.400000         2.669382777       625.082244396         2.189590539         4.858973316         0.055402937
       125           12.500000         2.662863095       623.555547896         2.196117547         4.858980643         0.069043452
       126           12.600000         2.653302304       621.316722945         2.205688088         4.858990392         0.043785666
       127           12.700000         2.640861133       618.403407136         2.218141321         4.859002455         0.044936793
       128           12.800000         2.625737181       614.861871477         2.233279467         4.859016648         0.081234680
       129           12.900000         2.608162135       610.746369909         2.250870637         4.859032772         0.043739443
       130           13.000000         2.588398603       606.118396415         2.270652006         4.859050609         0.043094783
       131           13.100000         2.566736580       601.045858139         2.292333335         4.859069914         0.056330645
       132           13.200000         2.543489525       595.602157357         2.315600902         4.859090427         0.104153676
       133           13.300000         2.518990170       589.865208827         2.340121682         4.859111852         0.097708202
       134           13.400000         2.493586129       583.916412198         2.365547815         4.859133944         0.088757781
       135           13.500000         2.467635243       577.839562565         2.391521122         4.859156365         0.089127059
       136           13.600000         2.441500826       571.719735885         2.417678007         4.859178834         0.069543178
       137           13.700000         2.415546893       565.642172626         2.443654156         4.859201050         0.044471143
       138           13.800000         2.390133340       559.691148662         2.469089377         4.859222717         0.081299551
       139           13.900000         2.365611148       553.948852292         2.493632386         4.859243534         0.097098236
       140           14.000000         2.342317789       548.494308664         2.516945441         4.859263231         0.091731723
       141           14.100000         2.320572814       543.402345679         2.538708740         4.859281554         0.082354656
       142           14.200000         2.300673673       538.742617017         2.558624587         4.859298260         0.099149306
       143           14.300000         2.282891803       534.578683871         2.576421325         4.859313128         0.069331131
       144           14.400000         2.267469035       530.967175549         2.591856912         4.859325947         0.043595431
       145           14.500000         2.254614450       527.957051681         2.604722110         4.859336561         0.070253702
       146           14.600000         2.244501613       525.588955439         2.614843207         4.859344820         0.093108402
       147           14.700000         2.237266339       523.894690688         2.622084278         4.859350617         0.097259443
       148           14.800000         2.233004962       522.896815391         2.626348915         4.859353877         0.196765918
       149           14.900000         2.231773043       522.608340353         2.627581508         4.859354551         0.091389894
       150           15.000000         2.233584669       523.032563867         2.625767969         4.859352637         0.086050130
       151           15.100000         2.238412316       524.163041107         2.620935840         4.859348156         0.080831075
       152           15.200000         2.246187229       525.983671643         2.613153944         4.859341172         0.043407922
       153           15.300000         2.256800356       528.468919489         2.602531416         4.859331773         0.056226818
       154           15.400000         2.270103802       531.584151824         2.589216284         4.859320086         0.090663524
       155           15.500000         2.285912802       535.286103130         2.573393460         4.859306262         0.085585238
       156           15.600000         2.304008209       539.523456420         2.555282279         4.859290488         0.079881232
       157           15.700000         2.324139383       544.237519670         2.535133573         4.859272955         0.056347625
       158           15.800000         2.346027505       549.363002923         2.513226405         4.859253910         0.044059942
       159           15.900000         2.369369228       554.828871907         2.489864389         4.859233617         0.093802834
       160           16.000000         2.393840733       560.559298954         2.465371591         4.859212324         0.082124985
       161           16.100000         2.419102026       566.474668463         2.440088290         4.859190316         0.080151617
       162           16.200000         2.444801415       572.492625902         2.414366472         4.859167887         0.070367624
       163           16.300000         2.470580182       578.529170927         2.388565163         4.859145344         0.043956932
       164           16.400000         2.496077242       584.499749633         2.363045727         4.859122969         0.067426424
       165           16.500000         2.520933993       590.320388545         2.338167064         4.859101057         0.090558699
       166           16.600000         2.544799063       595.908808322         2.314280841         4.859079904         0.083101399
       167           16.700000         2.567332881       601.185492344         2.291726919         4.859059800         0.080376904
       168           16.800000         2.588212176       606.074741207         2.270828810         4.859040985         0.080936757
       169           16.900000         2.607134288       610.505681846         2.251889442         4.859023730         0.045635387
       170           17.000000         2.623821191       614.413209203         2.235187091         4.859008282         0.094264878
       171           17.100000         2.638023190       617.738853433         2.220971639         4.858994829         0.097390828
       172           17.200000         2.649522247       620.431556999         2.209461316         4.858983562         0.083332839
       173           17.300000         2.658134902       622.448359527         2.200839723         4.858974625         0.100895403
       174           17.400000         2.663714765       623.754981101         2.195253378         4.858968143         0.079853258
       175           17.500000         2.666154477       624.326281993         2.192809740         4.858964217         0.046575894
       176           17.600000         2.665387259       624.146624501         2.193575639         4.858962898         0.042385441
       177           17.700000         2.661387899       623.210105180         2.197576323         4.858964222         0.055188989
       178           17.800000         2.654173135       621.520643123         2.204795037         4.858968172         0.053993369
       179           17.900000         2.643801624       619.091974082         2.215173084         4.858974708         0.043823728
       180           18.000000         2.630373361       615.947513534         2.228610404         4.858983766         0.042806199
       181           18.100000         2.614028476       612.120075414         2.244966744         4.858995220         0.041931319
       182           18.200000         2.594945576       607.651483612         2.264063393         4.859008969         0.045234543
       183           18.300000         2.573339614       602.592072964         2.285685219         4.859024832         0.078292739
       184           18.400000         2.549459211       597.000062898         2.309583402         4.859042614         0.086449729
       185           18.500000         2.523583636       590.940848443         2.335478456         4.859062092         0.095491977
       186           18.600000         2.496019356       584.486194616         2.363063685         4.859083041         0.075099897
       187           18.700000         2.467096221       577.713341157         2.392008968         4.859105189         0.097177528
       188           18.800000         2.437163419       570.704056676         2.421964848         4.859128267         0.089948399
       189           18.900000         2.406585058       563.543603538         2.452566939         4.859151997         0.044410365
       190           19.000000         2.375735653       556.319680645         2.483440448         4.859176101         0.069683288
       191           19.100000         2.344995526       549.121347063         2.514204730         4.859200256         0.086269916
       192           19.200000         2.314746020       542.037900873         2.544478151         4.859224171         0.042573610
       193           19.300000         2.285364724       535.157761342         2.573882837         4.859247562         0.079857763
       194           19.400000         2.257220837       528.567382410         2.602049296         4.859270133         0.070727366
       195           19.500000         2.230670576       522.350178406         2.628621045         4.859291620         0.044199532
       196           19.600000         2.206052746       516.585486874         2.653259000         4.859311746         0.083062265
       197           19.700000         2.183684543       511.347584461         2.675645728         4.859330270         0.072423592
       198           19.800000         2.163857616       506.704765950         2.695489343         4.859346959         0.044533564
       199           19.900000         2.146834394       502.718483453         2.712527219         4.859361614         0.049508063
       200           20.000000         2.132844748       499.442565361         2.726529279         4.859374027         0.047959246
       201           20.100000         2.122082940       496.922501374         2.737301098         4.859384038         0.195562505
       202           20.200000         2.114704842       495.194791900         2.744686622         4.859391464         0.047105081
       203           20.300000         2.110825554       494.286389417         2.748570637         4.859396192         0.048516403
       204           20.400000         2.110517533       494.214260987         2.748880593         4.859398126         0.048254503
       205           20.500000         2.113809484       494.985128432         2.745587780         4.859397264         0.049168865
       206           20.600000         2.120686046       496.595394502         2.738707598         4.859393644         0.074754050
       207           20.700000         2.131088274       499.031256452         2.728299080         4.859387354         0.085984157
       208           20.800000         2.144914757       502.268967119         2.714463722         4.859378479         0.049193708
       209           20.900000         2.162023081       506.275177754         2.697344070         4.859367151         0.087987630
       210           21.000000         2.182231708       511.007377899         2.677121804         4.859353512         0.073351468
       211           21.100000         2.205322203       516.414417609         2.654015530         4.859337733         0.059576788
       212           21.200000         2.231041844       522.437117369         2.628278136         4.859319980         0.085208398
       213           21.300000         2.259106646       529.008977141         2.600193832         4.859300477         0.061256978
       214           21.400000         2.289204703       536.056958939         2.570074749         4.859279453         0.075703016
       215           21.500000         2.320999956       543.502368366         2.538257198         4.859257153         0.087322181
       216           21.600000         2.354136243       551.261804360         2.505097622         4.859233865         0.049315440
       217           21.700000         2.388241572       559.248158319         2.470968293         4.859209865         0.047332513
       218           21.800000         2.422932611       567.371666450         2.436252814         4.859185425         0.048398520
       219           21.900000         2.457819377       575.541007250         2.401341484         4.859160861         0.047929792
       220           22.000000         2.492509976       583.664412305         2.366626489         4.859136465         0.047115044
       221           22.100000         2.526615344       591.650775429         2.332497172         4.859112516         0.048100571
       222           22.200000         2.559753953       599.410755024         2.299335377         4.859089330         0.045866994
       223           22.300000         2.591556469       606.857865517         2.267510701         4.859067171         0.044716515
       224           22.400000         2.621670267       613.909533184         2.237376046         4.859046313         0.046233996
       225           22.500000         2.649763668       620.488089925         2.209263343         4.859027010         0.046573502
       226           22.600000         2.675529924       626.521705341         2.183479568         4.859009491         0.158059980
       227           22.700000         2.698690935       631.945257474         2.160303028         4.858993963         0.045158030