 DBCSR| Multiplication driver                                               XSMM
 DBCSR| Multrec recursion limit                                              512
 DBCSR| Multiplication stack size                                           1000
 DBCSR| Maximum elements for images                                    UNLIMITED
 DBCSR| Randmat seed                                                    12341313
 DBCSR| Multiplication size stacks                                             3


  **** **** ******  **  PROGRAM STARTED AT               2021-02-12 16:43:36.189
 ***** ** ***  *** **   PROGRAM STARTED ON               bulstake.phys.ucl.ac.uk
 **    ****   ******    PROGRAM STARTED BY                             sgiannini
 ***** **    ** ** **   PROGRAM PROCESS ID                                  3519
  **** **  *******  **  PROGRAM STARTED IN /scratch/sgiannini/FOB-SH-REGTESTS_/3
                                           3-XXX_code_extension_V2/run-fssh-ISOT
                                           ROP

 CP2K| version string:                    CP2K version 4.0 (Development Version)
 CP2K| source code revision number:                                  git:cfe3005
 CP2K| cp2kflags: libint fftw3 libxc quip smm_dnn smm libxsmm libderiv_max_am1=5
 CP2K|             libint_max_am=6
 CP2K| is freely available from                            https://www.cp2k.org/
 CP2K| Program compiled at                          Fri 12 Feb 16:41:38 GMT 2021
 CP2K| Program compiled on                               bulstake.phys.ucl.ac.uk
 CP2K| Program compiled for                                                local
 CP2K| Data directory path           /scratch/sgiannini/flavoured-cptk/cp2k/data
 CP2K| Input file name                                                   run.inp

 GLOBAL| Force Environment number                                              1
 GLOBAL| Basis set file name                                           POTENTIAL
 GLOBAL| MM Potential file name                                     MM_POTENTIAL
 GLOBAL| Coordinate file name                                       pos-init.xyz
 GLOBAL| Force Environment number                                              2
 GLOBAL| Basis set file name                                           POTENTIAL
 GLOBAL| MM Potential file name                                     MM_POTENTIAL
 GLOBAL| Coordinate file name                                       pos-init.xyz
 GLOBAL| Force Environment number                                              3
 GLOBAL| Basis set file name                                           POTENTIAL
 GLOBAL| MM Potential file name                                     MM_POTENTIAL
 GLOBAL| Coordinate file name                                       pos-init.xyz
 GLOBAL| Method name                                                        CP2K
 GLOBAL| Project name                                                        run
 GLOBAL| Preferred FFT library                                             FFTW3
 GLOBAL| Preferred diagonalization lib.                                       SL
 GLOBAL| Run type                                                             MD
 GLOBAL| All-to-all communication in single precision                          F
 GLOBAL| FFTs using library dependent lengths                                  F
 GLOBAL| Global print level                                                  LOW
 GLOBAL| Total number of message passing processes                             1
 GLOBAL| Number of threads for this process                                    1
 GLOBAL| This output is from process                                           0
 GLOBAL| CPU model name :  Intel(R) Xeon(R) CPU E5-2687W v4 @ 3.00GHz

 MEMORY| system memory details [Kb]
 MEMORY|                        rank 0           min           max       average
 MEMORY| MemTotal             65894336      65894336      65894336      65894336
 MEMORY| MemFree               3448192       3448192       3448192       3448192
 MEMORY| Buffers                  9680          9680          9680          9680
 MEMORY| Cached               50526084      50526084      50526084      50526084
 MEMORY| Slab                  2053704       2053704       2053704       2053704
 MEMORY| SReclaimable          1717764       1717764       1717764       1717764
 MEMORY| MemLikelyFree        55701720      55701720      55701720      55701720

 TOTAL NUMBER OF FORCE EVALS           3
 NOTE:n_subforce_eval           2
 DECOMP =  T
 DECOMP =  T

 MD| Molecular Dynamics Protocol 
 MD| Ensemble Type                                                           NVE
 MD| Number of Time Steps                                                    200
 MD| Time Step [fs]                                                         0.10
 MD| Temperature [K]                                                      400.00
 MD| Temperature tolerance [K]                                              0.00
 MD| Print MD information every                                        1 step(s)
 MD| File type     Print frequency[steps]                             File names
 MD| Coordinates          200                                      run-pos-1.xyz
 MD| Velocities             1                                      run-vel-1.xyz
 MD| Energies               1                                         run-1.ener
 MD| Dump                 200                                      run-1.restart

 ROT| Rotational Analysis Info 
 ROT| Principal axes and moments of inertia in atomic units:
 ROT|                                1                 2                 3
 ROT| EIGENVALUES            0.319196005E+10   0.583971964E+10   0.882037602E+10
 ROT|      X                     0.997631408       0.066105605       0.019016393
 ROT|      Y                     0.066118536      -0.997811774      -0.000051363
 ROT|      Z                    -0.018971385      -0.001308578       0.999819171
 ROT| Numer of Rotovibrational vectors:     6

 Calculation of degrees of freedom
                                                      Number of atoms:       900
                                 Number of Intramolecular constraints:         0
                                 Number of Intermolecular constraints:         0
                                  Invariants(translation + rotations):         3
                                                   Degrees of freedom:      2697


 Restraints Information
                                  Number of Intramolecular restraints:         0
                                  Number of Intermolecular restraints:         0

 *** WARNING in motion/thermostat/thermostat_methods.F:280 :: Thermostat ***
 *** for Particles has been defined but the ensemble provided does not   ***
 *** support thermostat for Particles! Ignoring thermostat input.        ***

 ************************** Velocities initialization **************************
 Initial Temperature                                                    564.84 K
 COM velocity:           -0.000000000004     -0.000000000000      0.000000000001
 *******************************************************************************

 FIRST CALL: force_env_calc_energy_force
 RESTART_KEY F
 FOB-SH: ALLOCATION OF S MATRICES
 Lookup table files:
 ../topologies/S_psigma.txt                                                      
 ../topologies/S_ppi.txt                                                         
 ../topologies/S_psigma_carbon_sulfur.dat                                        
 ../topologies/S_ppi_carbon_sulfur.dat                                           
 ../topologies/S_psigma_sulfur_sulfur.dat                                        
 ../topologies/S_ppi_sulfur_sulfur.dat                                           
 C-S psigma nrows     1166666
 C-S ppi nrows     1166666
 S-S psigma nrows     1166666
 S-S ppi nrows     1166666
 FOBSH| ACTIVE STATE =            3

 ENERGY| Total FORCE_EVAL ( MIXED ) energy (a.u.):             2.446232217772700

 STEP NUMBER                  =            0
 CPU TIME [s]                 =    0.0000000000000000        0.0000000000000000     

 MD_ENERGIES| Initialization proceeding


 ******************************** GO CP2K GO! **********************************
 INITIAL POTENTIAL ENERGY[hartree]     =                      0.244623221777E+01
 INITIAL KINETIC ENERGY[hartree]       =                      0.241212372912E+01
 INITIAL TEMPERATURE[K]                =                                 564.841
 INITIAL VOLUME[bohr^3]                =                      0.580604601118E+05
 INITIAL CELL LNTHS[bohr]   =      0.7651501E+02   0.5624770E+02   0.1634991E+02
 INITIAL CELL ANGLS[deg]    =      0.9000000E+02   0.1244000E+03   0.9000000E+02
 ******************************** GO CP2K GO! **********************************
 FOBSH| *** OFF-DIAGONAL GRADIENT CALCULATION
 FOBSH| Put former active state           3 in new active state           3
 RANDOM_NUMBER_HOPPING_PROBA   5.9147270233983230E-002
 FOBSH| ACTIVE STATE =            3

 ENERGY| Total FORCE_EVAL ( MIXED ) energy (a.u.):             2.417622451703958

 FOBSH| CASE1: no hop and no trivial crossing
 ENTER integrator.F
 STEP NUMBER                  =            1
 CPU TIME [s]                 =    66.031373050063848        66.031373050063848     

 *******************************************************************************
 ENSEMBLE TYPE                =                                              NVE
 STEP NUMBER                  =                                                1
 TIME [fs]                    =                                         0.100000
 CONSERVED QUANTITY [hartree] =                               0.485833408781E+01

                                              INSTANTANEOUS             AVERAGES
 CPU TIME [s]                 =                       66.03                66.03
 ENERGY DRIFT PER ATOM [K]    =         -0.766949633478E-02   0.000000000000E+00
 POTENTIAL ENERGY[hartree]    =          0.241762245170E+01   0.241762245170E+01
 KINETIC ENERGY [hartree]     =          0.244071163610E+01   0.244071163610E+01
 TEMPERATURE [K]              =                     571.535              571.535
 *******************************************************************************

 FOBSH| *** OFF-DIAGONAL GRADIENT CALCULATION
 FOBSH| Put former active state           3 in new active state           3
 RANDOM_NUMBER_HOPPING_PROBA   6.0028801785314174E-002
 FOBSH| ACTIVE STATE =            3

 ENERGY| Total FORCE_EVAL ( MIXED ) energy (a.u.):             2.390386989939289

 FOBSH| CASE1: no hop and no trivial crossing
 ENTER integrator.F
 STEP NUMBER                  =            2
 CPU TIME [s]                 =    7.5507255271077156E-002   33.053440152667463     

 *******************************************************************************
 ENSEMBLE TYPE                =                                              NVE
 STEP NUMBER                  =                                                2
 TIME [fs]                    =                                         0.200000
 CONSERVED QUANTITY [hartree] =                               0.485831332394E+01

                                              INSTANTANEOUS             AVERAGES
 CPU TIME [s]                 =                        0.08                33.05
 ENERGY DRIFT PER ATOM [K]    =         -0.149547210586E-01  -0.747736052929E-02
 POTENTIAL ENERGY[hartree]    =          0.239038698994E+01   0.240400472082E+01
 KINETIC ENERGY [hartree]     =          0.246792633400E+01   0.245431898505E+01
 TEMPERATURE [K]              =                     577.908              574.721
 *******************************************************************************

 FOBSH| *** OFF-DIAGONAL GRADIENT CALCULATION
 FOBSH| Put former active state           3 in new active state           3
 RANDOM_NUMBER_HOPPING_PROBA   7.3757525147303299E-002
 FOBSH| ACTIVE STATE =            3

 ENERGY| Total FORCE_EVAL ( MIXED ) energy (a.u.):             2.364855773581247

 FOBSH| CASE1: no hop and no trivial crossing
 ENTER integrator.F
 STEP NUMBER                  =            3
 CPU TIME [s]                 =    7.6351556926965714E-002   22.061077287420630     

 *******************************************************************************
 ENSEMBLE TYPE                =                                              NVE
 STEP NUMBER                  =                                                3
 TIME [fs]                    =                                         0.300000
 CONSERVED QUANTITY [hartree] =                               0.485829413140E+01

                                              INSTANTANEOUS             AVERAGES
 CPU TIME [s]                 =                        0.08                22.06
 ENERGY DRIFT PER ATOM [K]    =         -0.216886303224E-01  -0.122144504603E-01
 POTENTIAL ENERGY[hartree]    =          0.236485577358E+01   0.239095507174E+01
 KINETIC ENERGY [hartree]     =          0.249343835782E+01   0.246735877597E+01
 TEMPERATURE [K]              =                     583.882              577.775
 *******************************************************************************

 FOBSH| *** OFF-DIAGONAL GRADIENT CALCULATION
 FOBSH| Put former active state           3 in new active state           3
 RANDOM_NUMBER_HOPPING_PROBA  0.80854958276690769     
 FOBSH| ACTIVE STATE =            3

 ENERGY| Total FORCE_EVAL ( MIXED ) energy (a.u.):             2.341333699950324

 FOBSH| CASE1: no hop and no trivial crossing
 ENTER integrator.F
 STEP NUMBER                  =            4
 CPU TIME [s]                 =    7.5366743840277195E-002   16.564649651525542     

 *******************************************************************************
 ENSEMBLE TYPE                =                                              NVE
 STEP NUMBER                  =                                                4
 TIME [fs]                    =                                         0.400000
 CONSERVED QUANTITY [hartree] =                               0.485827677202E+01

                                              INSTANTANEOUS             AVERAGES
 CPU TIME [s]                 =                        0.08                16.56
 ENERGY DRIFT PER ATOM [K]    =         -0.277793539687E-01  -0.161056763374E-01
 POTENTIAL ENERGY[hartree]    =          0.234133369995E+01   0.237854972879E+01
 KINETIC ENERGY [hartree]     =          0.251694307207E+01   0.247975485000E+01
 TEMPERATURE [K]              =                     589.386              580.678
 *******************************************************************************

 FOBSH| *** OFF-DIAGONAL GRADIENT CALCULATION
 FOBSH| Put former active state           3 in new active state           3
 RANDOM_NUMBER_HOPPING_PROBA  0.83291450404706813     
 FOBSH| ACTIVE STATE =            3

 ENERGY| Total FORCE_EVAL ( MIXED ) energy (a.u.):             2.320096253965153

 FOBSH| CASE1: no hop and no trivial crossing
 ENTER integrator.F
 STEP NUMBER                  =            5
 CPU TIME [s]                 =    7.5700530782341957E-002   13.266859827376903     

 *******************************************************************************
 ENSEMBLE TYPE                =                                              NVE
 STEP NUMBER                  =                                                5
 TIME [fs]                    =                                         0.500000
 CONSERVED QUANTITY [hartree] =                               0.485826145058E+01

                                              INSTANTANEOUS             AVERAGES
 CPU TIME [s]                 =                        0.08                13.27
 ENERGY DRIFT PER ATOM [K]    =         -0.331550474872E-01  -0.195155505674E-01
 POTENTIAL ENERGY[hartree]    =          0.232009625397E+01   0.236685903383E+01
 KINETIC ENERGY [hartree]     =          0.253816519661E+01   0.249143691932E+01
 TEMPERATURE [K]              =                     594.355              583.413
 *******************************************************************************

 FOBSH| *** OFF-DIAGONAL GRADIENT CALCULATION
 FOBSH| Put former active state           3 in new active state           3
 RANDOM_NUMBER_HOPPING_PROBA  0.18164339214140215     
 FOBSH| ACTIVE STATE =            3

 ENERGY| Total FORCE_EVAL ( MIXED ) energy (a.u.):             2.301385962497755

 FOBSH| CASE1: no hop and no trivial crossing
 ENTER integrator.F
 STEP NUMBER                  =            6
 CPU TIME [s]                 =    7.5028169900178909E-002   11.068221217797447     

 *******************************************************************************
 ENSEMBLE TYPE                =                                              NVE
 STEP NUMBER                  =                                                6
 TIME [fs]                    =                                         0.600000
 CONSERVED QUANTITY [hartree] =                               0.485824838082E+01

                                              INSTANTANEOUS             AVERAGES
 CPU TIME [s]                 =                        0.08                11.07
 ENERGY DRIFT PER ATOM [K]    =         -0.377407125679E-01  -0.225530775675E-01
 POTENTIAL ENERGY[hartree]    =          0.230138596250E+01   0.235594685527E+01
 KINETIC ENERGY [hartree]     =          0.255686241832E+01   0.250234116915E+01
 TEMPERATURE [K]              =                     598.734              585.967
 *******************************************************************************

 FOBSH| *** OFF-DIAGONAL GRADIENT CALCULATION
 FOBSH| Put former active state           3 in new active state           3
 RANDOM_NUMBER_HOPPING_PROBA   1.5105624017764302E-002
 FOBSH| ACTIVE STATE =            3

 ENERGY| Total FORCE_EVAL ( MIXED ) energy (a.u.):             2.285409260771546

 FOBSH| CASE1: no hop and no trivial crossing
 ENTER integrator.F
 STEP NUMBER                  =            7
 CPU TIME [s]                 =    7.5621537864208221E-002   9.4978498349498413     

 *******************************************************************************
 ENSEMBLE TYPE                =                                              NVE
 STEP NUMBER                  =                                                7
 TIME [fs]                    =                                         0.700000
 CONSERVED QUANTITY [hartree] =                               0.485823772434E+01

                                              INSTANTANEOUS             AVERAGES
 CPU TIME [s]                 =                        0.08                 9.50
 ENERGY DRIFT PER ATOM [K]    =         -0.414796510910E-01  -0.252568737851E-01
 POTENTIAL ENERGY[hartree]    =          0.228540926077E+01   0.234587005606E+01
 KINETIC ENERGY [hartree]     =          0.257282846357E+01   0.251241078264E+01
 TEMPERATURE [K]              =                     602.472              588.325
 *******************************************************************************

 FOBSH| *** OFF-DIAGONAL GRADIENT CALCULATION
 FOBSH| Put former active state           3 in new active state           3
 RANDOM_NUMBER_HOPPING_PROBA  0.24687190385287536     
 FOBSH| ACTIVE STATE =            3

 ENERGY| Total FORCE_EVAL ( MIXED ) energy (a.u.):             2.272333892703074

 FOBSH| CASE1: no hop and no trivial crossing
 ENTER integrator.F
 STEP NUMBER                  =            8
 CPU TIME [s]                 =    7.4943296611309052E-002   8.3199865176575241     

 *******************************************************************************
 ENSEMBLE TYPE                =                                              NVE
 STEP NUMBER                  =                                                8
 TIME [fs]                    =                                         0.800000
 CONSERVED QUANTITY [hartree] =                               0.485822960408E+01

                                              INSTANTANEOUS             AVERAGES
 CPU TIME [s]                 =                        0.07                 8.32
 ENERGY DRIFT PER ATOM [K]    =         -0.443287307079E-01  -0.276408559004E-01
 POTENTIAL ENERGY[hartree]    =          0.227233389270E+01   0.233667803564E+01
 KINETIC ENERGY [hartree]     =          0.258589571138E+01   0.252159639873E+01
 TEMPERATURE [K]              =                     605.532              590.476
 *******************************************************************************

 FOBSH| *** OFF-DIAGONAL GRADIENT CALCULATION
 FOBSH| Put former active state           3 in new active state           3
 RANDOM_NUMBER_HOPPING_PROBA  0.83365123518729989     
 FOBSH| ACTIVE STATE =            3

 ENERGY| Total FORCE_EVAL ( MIXED ) energy (a.u.):             2.262286855935997

 FOBSH| CASE1: no hop and no trivial crossing
 ENTER integrator.F
 STEP NUMBER                  =            9
 CPU TIME [s]                 =    7.5188757851719856E-002   7.4038978776791007     

 *******************************************************************************
 ENSEMBLE TYPE                =                                              NVE
 STEP NUMBER                  =                                                9
 TIME [fs]                    =                                         0.900000
 CONSERVED QUANTITY [hartree] =                               0.485822414527E+01

                                              INSTANTANEOUS             AVERAGES
 CPU TIME [s]                 =                        0.08                 7.40
 ENERGY DRIFT PER ATOM [K]    =         -0.462440122192E-01  -0.297078732692E-01
 POTENTIAL ENERGY[hartree]    =          0.226228685594E+01   0.232841234901E+01
 KINETIC ENERGY [hartree]     =          0.259593728934E+01   0.252985649769E+01
 TEMPERATURE [K]              =                     607.884              592.410
 *******************************************************************************

 FOBSH| *** OFF-DIAGONAL GRADIENT CALCULATION
 FOBSH| Put former active state           3 in new active state           3
 RANDOM_NUMBER_HOPPING_PROBA  0.47399308453094258     
 FOBSH| ACTIVE STATE =            3

 ENERGY| Total FORCE_EVAL ( MIXED ) energy (a.u.):             2.255352766656523

 FOBSH| CASE1: no hop and no trivial crossing
 ENTER integrator.F
 STEP NUMBER                  =           10
 CPU TIME [s]                 =    7.5596811249852180E-002   6.6710677710361770     

 *******************************************************************************
 ENSEMBLE TYPE                =                                              NVE
 STEP NUMBER                  =                                               10
 TIME [fs]                    =                                         1.000000
 CONSERVED QUANTITY [hartree] =                               0.485822137256E+01

                                              INSTANTANEOUS             AVERAGES
 CPU TIME [s]                 =                        0.08                 6.67
 ENERGY DRIFT PER ATOM [K]    =         -0.472168476583E-01  -0.314587707081E-01
 POTENTIAL ENERGY[hartree]    =          0.225535276666E+01   0.232110639077E+01
 KINETIC ENERGY [hartree]     =          0.260286860591E+01   0.253715770851E+01
 TEMPERATURE [K]              =                     609.507              594.119
 *******************************************************************************

 FOBSH| *** OFF-DIAGONAL GRADIENT CALCULATION
 FOBSH| Put former active state           3 in new active state           3
 RANDOM_NUMBER_HOPPING_PROBA  0.27416560636517739     
 FOBSH| ACTIVE STATE =            3

 ENERGY| Total FORCE_EVAL ( MIXED ) energy (a.u.):             2.251572980381613

 FOBSH| CASE1: no hop and no trivial crossing
 ENTER integrator.F
 STEP NUMBER                  =           11
 CPU TIME [s]                 =    7.5340354815125465E-002   6.0714561877433537     

 *******************************************************************************
 ENSEMBLE TYPE                =                                              NVE
 STEP NUMBER                  =                                               11
 TIME [fs]                    =                                         1.100000
 CONSERVED QUANTITY [hartree] =                               0.485822133511E+01

                                              INSTANTANEOUS             AVERAGES
 CPU TIME [s]                 =                        0.08                 6.07
 ENERGY DRIFT PER ATOM [K]    =         -0.472299897595E-01  -0.328925178946E-01
 POTENTIAL ENERGY[hartree]    =          0.225157298038E+01   0.231478517164E+01
 KINETIC ENERGY [hartree]     =          0.260664835472E+01   0.254347503999E+01
 TEMPERATURE [K]              =                     610.392              595.599
 *******************************************************************************

 FOBSH| *** OFF-DIAGONAL GRADIENT CALCULATION
 FOBSH| Put former active state           3 in new active state           3
 RANDOM_NUMBER_HOPPING_PROBA  0.45405030167718952     
 FOBSH| ACTIVE STATE =            3

 ENERGY| Total FORCE_EVAL ( MIXED ) energy (a.u.):             2.250945077302116

 FOBSH| CASE1: no hop and no trivial crossing
 ENTER integrator.F
 STEP NUMBER                  =           12
 CPU TIME [s]                 =    7.5347110629081726E-002   5.5717804313171637     

 *******************************************************************************
 ENSEMBLE TYPE                =                                              NVE
 STEP NUMBER                  =                                               12
 TIME [fs]                    =                                         1.200000
 CONSERVED QUANTITY [hartree] =                               0.485822400565E+01

                                              INSTANTANEOUS             AVERAGES
 CPU TIME [s]                 =                        0.08                 5.57
 ENERGY DRIFT PER ATOM [K]    =         -0.462930004509E-01  -0.340092247743E-01
 POTENTIAL ENERGY[hartree]    =          0.225094507730E+01   0.230946516378E+01
 KINETIC ENERGY [hartree]     =          0.260727892835E+01   0.254879203068E+01
 TEMPERATURE [K]              =                     610.540              596.844
 *******************************************************************************

 FOBSH| *** OFF-DIAGONAL GRADIENT CALCULATION
 FOBSH| Put former active state           3 in new active state           3
 RANDOM_NUMBER_HOPPING_PROBA  0.54219999671392127     
 FOBSH| ACTIVE STATE =            3

 ENERGY| Total FORCE_EVAL ( MIXED ) energy (a.u.):             2.253423167408531

 FOBSH| CASE1: no hop and no trivial crossing
 ENTER integrator.F
 STEP NUMBER                  =           13
 CPU TIME [s]                 =    7.6171149499714375E-002   5.1490412557927439     

 *******************************************************************************
 ENSEMBLE TYPE                =                                              NVE
 STEP NUMBER                  =                                               13
 TIME [fs]                    =                                         1.300000
 CONSERVED QUANTITY [hartree] =                               0.485822935873E+01

                                              INSTANTANEOUS             AVERAGES
 CPU TIME [s]                 =                        0.08                 5.15
 ENERGY DRIFT PER ATOM [K]    =         -0.444148138616E-01  -0.348096547041E-01
 POTENTIAL ENERGY[hartree]    =          0.225342316741E+01   0.230515424098E+01
 KINETIC ENERGY [hartree]     =          0.260480619133E+01   0.255310081227E+01
 TEMPERATURE [K]              =                     609.961              597.853
 *******************************************************************************

 FOBSH| *** OFF-DIAGONAL GRADIENT CALCULATION
 FOBSH| Put former active state           3 in new active state           3
 RANDOM_NUMBER_HOPPING_PROBA  0.78530724540909458     
 FOBSH| ACTIVE STATE =            3

 ENERGY| Total FORCE_EVAL ( MIXED ) energy (a.u.):             2.258918534532973

 FOBSH| CASE1: no hop and no trivial crossing
 ENTER integrator.F
 STEP NUMBER                  =           14
 CPU TIME [s]                 =    7.5254837982356548E-002   4.7866279402348590     

 *******************************************************************************
 ENSEMBLE TYPE                =                                              NVE
 STEP NUMBER                  =                                               14
 TIME [fs]                    =                                         1.400000
 CONSERVED QUANTITY [hartree] =                               0.485823729337E+01

                                              INSTANTANEOUS             AVERAGES
 CPU TIME [s]                 =                        0.08                 4.79
 ENERGY DRIFT PER ATOM [K]    =         -0.416308611254E-01  -0.352968837342E-01
 POTENTIAL ENERGY[hartree]    =          0.225891853453E+01   0.230185169052E+01
 KINETIC ENERGY [hartree]     =          0.259931875884E+01   0.255640209417E+01
 TEMPERATURE [K]              =                     608.676              598.626
 *******************************************************************************

 FOBSH| *** OFF-DIAGONAL GRADIENT CALCULATION
 FOBSH| Put former active state           3 in new active state           3
 RANDOM_NUMBER_HOPPING_PROBA  0.35091300797413705     
 FOBSH| ACTIVE STATE =            3

 ENERGY| Total FORCE_EVAL ( MIXED ) energy (a.u.):             2.267300976443297

 FOBSH| CASE1: no hop and no trivial crossing
 ENTER integrator.F
 STEP NUMBER                  =           15
 CPU TIME [s]                 =    7.5571767054498196E-002   4.4725575286895021     

 *******************************************************************************
 ENSEMBLE TYPE                =                                              NVE
 STEP NUMBER                  =                                               15
 TIME [fs]                    =                                         1.500000
 CONSERVED QUANTITY [hartree] =                               0.485824771442E+01

                                              INSTANTANEOUS             AVERAGES
 CPU TIME [s]                 =                        0.08                 4.47
 ENERGY DRIFT PER ATOM [K]    =         -0.379745244620E-01  -0.354753931160E-01
 POTENTIAL ENERGY[hartree]    =          0.226730097644E+01   0.229954830958E+01
 KINETIC ENERGY [hartree]     =          0.259094673798E+01   0.255870507042E+01
 TEMPERATURE [K]              =                     606.715              599.165
 *******************************************************************************

 FOBSH| *** OFF-DIAGONAL GRADIENT CALCULATION
 FOBSH| Put former active state           3 in new active state           3
 RANDOM_NUMBER_HOPPING_PROBA  0.51277297843638336     
 FOBSH| ACTIVE STATE =            3

 ENERGY| Total FORCE_EVAL ( MIXED ) energy (a.u.):             2.278400547013296

 FOBSH| CASE1: no hop and no trivial crossing
 ENTER integrator.F
 STEP NUMBER                  =           16
 CPU TIME [s]                 =    7.5660334900021553E-002   4.1977514540776593     

 *******************************************************************************
 ENSEMBLE TYPE                =                                              NVE
 STEP NUMBER                  =                                               16
 TIME [fs]                    =                                         1.600000
 CONSERVED QUANTITY [hartree] =                               0.485826044102E+01

                                              INSTANTANEOUS             AVERAGES
 CPU TIME [s]                 =                        0.08                 4.20
 ENERGY DRIFT PER ATOM [K]    =         -0.335092610314E-01  -0.353525098607E-01
 POTENTIAL ENERGY[hartree]    =          0.227840054701E+01   0.229822657442E+01
 KINETIC ENERGY [hartree]     =          0.257985989401E+01   0.256002724690E+01
 TEMPERATURE [K]              =                     604.119              599.475
 *******************************************************************************

 FOBSH| *** OFF-DIAGONAL GRADIENT CALCULATION
 FOBSH| Put former active state           3 in new active state           3
 RANDOM_NUMBER_HOPPING_PROBA  0.56672912879839055     
 FOBSH| ACTIVE STATE =            3

 ENERGY| Total FORCE_EVAL ( MIXED ) energy (a.u.):             2.292010105020010

 FOBSH| CASE1: no hop and no trivial crossing
 ENTER integrator.F
 STEP NUMBER                  =           17
 CPU TIME [s]                 =    7.5647687539458275E-002   3.9552747619283535     

 *******************************************************************************
 ENSEMBLE TYPE                =                                              NVE
 STEP NUMBER                  =                                               17
 TIME [fs]                    =                                         1.700000
 CONSERVED QUANTITY [hartree] =                               0.485827533008E+01

                                              INSTANTANEOUS             AVERAGES
 CPU TIME [s]                 =                        0.08                 3.96
 ENERGY DRIFT PER ATOM [K]    =         -0.282852735424E-01  -0.349367900773E-01
 POTENTIAL ENERGY[hartree]    =          0.229201010502E+01   0.229786089975E+01
 KINETIC ENERGY [hartree]     =          0.256626522506E+01   0.256039418679E+01
 TEMPERATURE [K]              =                     600.935              599.561
 *******************************************************************************

 FOBSH| *** OFF-DIAGONAL GRADIENT CALCULATION
 FOBSH| Put former active state           3 in new active state           3
 RANDOM_NUMBER_HOPPING_PROBA   4.1701011982236642E-002
 FOBSH| ACTIVE STATE =            3

 ENERGY| Total FORCE_EVAL ( MIXED ) energy (a.u.):             2.307888090183387

 FOBSH| CASE1: no hop and no trivial crossing
 ENTER integrator.F
 STEP NUMBER                  =           18
 CPU TIME [s]                 =    7.5365081429481506E-002   3.7397242241228601     

 *******************************************************************************
 ENSEMBLE TYPE                =                                              NVE
 STEP NUMBER                  =                                               18
 TIME [fs]                    =                                         1.800000
 CONSERVED QUANTITY [hartree] =                               0.485829217258E+01

                                              INSTANTANEOUS             AVERAGES
 CPU TIME [s]                 =                        0.08                 3.74
 ENERGY DRIFT PER ATOM [K]    =         -0.223759021988E-01  -0.342389629729E-01
 POTENTIAL ENERGY[hartree]    =          0.230788809018E+01   0.229841796589E+01
 KINETIC ENERGY [hartree]     =          0.255040408240E+01   0.255983918099E+01
 TEMPERATURE [K]              =                     597.221              599.431
 *******************************************************************************

 FOBSH| *** OFF-DIAGONAL GRADIENT CALCULATION
 FOBSH| Put former active state           3 in new active state           3
 RANDOM_NUMBER_HOPPING_PROBA  0.23087441688912894     
 FOBSH| ACTIVE STATE =            3

 ENERGY| Total FORCE_EVAL ( MIXED ) energy (a.u.):             2.325761822280420

 FOBSH| CASE1: no hop and no trivial crossing
 ENTER integrator.F
 STEP NUMBER                  =           19
 CPU TIME [s]                 =    7.5006178580224514E-002   3.5468443269890373     

 *******************************************************************************
 ENSEMBLE TYPE                =                                              NVE
 STEP NUMBER                  =                                               19
 TIME [fs]                    =                                         1.900000
 CONSERVED QUANTITY [hartree] =                               0.485831069608E+01

                                              INSTANTANEOUS             AVERAGES
 CPU TIME [s]                 =                        0.08                 3.55
 ENERGY DRIFT PER ATOM [K]    =         -0.158767353125E-01  -0.332725299382E-01
 POTENTIAL ENERGY[hartree]    =          0.232576182228E+01   0.229985711622E+01
 KINETIC ENERGY [hartree]     =          0.253254887380E+01   0.255840284903E+01
 TEMPERATURE [K]              =                     593.040              599.094
 *******************************************************************************

 FOBSH| *** OFF-DIAGONAL GRADIENT CALCULATION
 FOBSH| Put former active state           3 in new active state           3
 RANDOM_NUMBER_HOPPING_PROBA  0.10818778711908025     
 FOBSH| ACTIVE STATE =            3

 ENERGY| Total FORCE_EVAL ( MIXED ) energy (a.u.):             2.345331280429511

 FOBSH| CASE1: no hop and no trivial crossing
 ENTER integrator.F
 STEP NUMBER                  =           20
 CPU TIME [s]                 =    7.5552740134298801E-002   3.3732797476463006     

 *******************************************************************************
 ENSEMBLE TYPE                =                                              NVE
 STEP NUMBER                  =                                               20
 TIME [fs]                    =                                         2.000000
 CONSERVED QUANTITY [hartree] =                               0.485833069106E+01

                                              INSTANTANEOUS             AVERAGES
 CPU TIME [s]                 =                        0.08                 3.37
 ENERGY DRIFT PER ATOM [K]    =         -0.886128253725E-02  -0.320519675681E-01
 POTENTIAL ENERGY[hartree]    =          0.234533128043E+01   0.230213082443E+01
 KINETIC ENERGY [hartree]     =          0.251299941063E+01   0.255613267711E+01
 TEMPERATURE [K]              =                     588.462              598.563
 *******************************************************************************

 FOBSH| *** OFF-DIAGONAL GRADIENT CALCULATION
 FOBSH| Put former active state           3 in new active state           3
 RANDOM_NUMBER_HOPPING_PROBA  0.22324767369672568     
 FOBSH| ACTIVE STATE =            3

 ENERGY| Total FORCE_EVAL ( MIXED ) energy (a.u.):             2.366273089923269

 FOBSH| CASE1: no hop and no trivial crossing
 ENTER integrator.F
 STEP NUMBER                  =           21
 CPU TIME [s]                 =    7.4988790787756443E-002   3.2162182735101794     

 *******************************************************************************
 ENSEMBLE TYPE                =                                              NVE
 STEP NUMBER                  =                                               21
 TIME [fs]                    =                                         2.100000
 CONSERVED QUANTITY [hartree] =                               0.485835186657E+01

                                              INSTANTANEOUS             AVERAGES
 CPU TIME [s]                 =                        0.07                 3.22
 ENERGY DRIFT PER ATOM [K]    =         -0.143162753214E-02  -0.305938561379E-01
 POTENTIAL ENERGY[hartree]    =          0.236627308992E+01   0.230518521803E+01
 KINETIC ENERGY [hartree]     =          0.249207877664E+01   0.255308249137E+01
 TEMPERATURE [K]              =                     583.563              597.849
 *******************************************************************************

 FOBSH| *** OFF-DIAGONAL GRADIENT CALCULATION
 FOBSH| Put former active state           3 in new active state           3
 RANDOM_NUMBER_HOPPING_PROBA  0.53970963304387498     
 FOBSH| ACTIVE STATE =            3

 ENERGY| Total FORCE_EVAL ( MIXED ) energy (a.u.):             2.388245065988285

 FOBSH| CASE1: no hop and no trivial crossing
 ENTER integrator.F
 STEP NUMBER                  =           22
 CPU TIME [s]                 =    7.4896625243127346E-002   3.0734309258616772     

 *******************************************************************************
 ENSEMBLE TYPE                =                                              NVE
 STEP NUMBER                  =                                               22
 TIME [fs]                    =                                         2.200000
 CONSERVED QUANTITY [hartree] =                               0.485837393037E+01

                                              INSTANTANEOUS             AVERAGES
 CPU TIME [s]                 =                        0.07                 3.07
 ENERGY DRIFT PER ATOM [K]    =          0.630969268448E-02  -0.289164221005E-01
 POTENTIAL ENERGY[hartree]    =          0.238824506599E+01   0.230896066566E+01
 KINETIC ENERGY [hartree]     =          0.247012886438E+01   0.254931187197E+01
 TEMPERATURE [K]              =                     578.423              596.966
 *******************************************************************************

 FOBSH| *** OFF-DIAGONAL GRADIENT CALCULATION
 FOBSH| Put former active state           3 in new active state           3
 RANDOM_NUMBER_HOPPING_PROBA   3.7455510299360881E-002
 FOBSH| ACTIVE STATE =            3

 ENERGY| Total FORCE_EVAL ( MIXED ) energy (a.u.):             2.410890789300058

 FOBSH| CASE1: no hop and no trivial crossing
 ENTER integrator.F
 STEP NUMBER                  =           23
 CPU TIME [s]                 =    7.4823928065598011E-002   2.9430567085661954     

 *******************************************************************************
 ENSEMBLE TYPE                =                                              NVE
 STEP NUMBER                  =                                               23
 TIME [fs]                    =                                         2.300000
 CONSERVED QUANTITY [hartree] =                               0.485839659006E+01

                                              INSTANTANEOUS             AVERAGES
 CPU TIME [s]                 =                        0.07                 2.94
 ENERGY DRIFT PER ATOM [K]    =          0.142600898834E-01  -0.270391824490E-01
 POTENTIAL ENERGY[hartree]    =          0.241089078930E+01   0.231339241017E+01
 KINETIC ENERGY [hartree]     =          0.244750580076E+01   0.254488552104E+01
 TEMPERATURE [K]              =                     573.126              595.929
 *******************************************************************************

 FOBSH| *** OFF-DIAGONAL GRADIENT CALCULATION
 FOBSH| Put former active state           3 in new active state           3
 RANDOM_NUMBER_HOPPING_PROBA  0.50599131459514457     
 FOBSH| ACTIVE STATE =            3

 ENERGY| Total FORCE_EVAL ( MIXED ) energy (a.u.):             2.433844362870786

 FOBSH| CASE1: no hop and no trivial crossing
 ENTER integrator.F
 STEP NUMBER                  =           24
 CPU TIME [s]                 =    7.4608568102121353E-002   2.8235380360468589     

 *******************************************************************************
 ENSEMBLE TYPE                =                                              NVE
 STEP NUMBER                  =                                               24
 TIME [fs]                    =                                         2.400000
 CONSERVED QUANTITY [hartree] =                               0.485841951999E+01

                                              INSTANTANEOUS             AVERAGES
 CPU TIME [s]                 =                        0.07                 2.82
 ENERGY DRIFT PER ATOM [K]    =          0.223053020326E-01  -0.249831622623E-01
 POTENTIAL ENERGY[hartree]    =          0.243384436287E+01   0.231841124153E+01
 KINETIC ENERGY [hartree]     =          0.242457515712E+01   0.253987258921E+01
 TEMPERATURE [K]              =                     567.756              594.755
 *******************************************************************************

 FOBSH| *** OFF-DIAGONAL GRADIENT CALCULATION
 FOBSH| Put former active state           3 in new active state           3
 RANDOM_NUMBER_HOPPING_PROBA  0.97666355388844839     
 FOBSH| ATTEMPTED_HOP
 FOBSH| ACTIVE STATE =            3

 ENERGY| Total FORCE_EVAL ( MIXED ) energy (a.u.):             2.456735447634066

 FOBSH| Active state before the attempt to hop:           3

 ENERGY| Total FORCE_EVAL ( MIXED ) energy (a.u.):             2.458997003627764

 FOBSH| Active state after the attempt to hop:           4
 FOBSH| Possible trivial crossing
 FOBSH| CASE5: successful hop and maybe a crossing, final overlap is :   3.1814795854232122E-004
 FOBSH| We were localized on molecule           4
 FOBSH| And now on molecule           1
 Before,    After
           3           4
 ENTER integrator.F
 STEP NUMBER                  =           25
 CPU TIME [s]                 =    9.5456801354885101E-002   2.7144147866591801     

 *******************************************************************************
 ENSEMBLE TYPE                =                                              NVE
 STEP NUMBER                  =                                               25
 TIME [fs]                    =                                         2.500000
 CONSERVED QUANTITY [hartree] =                               0.485844240804E+01

                                              INSTANTANEOUS             AVERAGES
 CPU TIME [s]                 =                        0.10                 2.71
 ENERGY DRIFT PER ATOM [K]    =          0.303358192418E-01  -0.227704030021E-01
 POTENTIAL ENERGY[hartree]    =          0.245899700363E+01   0.232403467202E+01
 KINETIC ENERGY [hartree]     =          0.239944540441E+01   0.253425550182E+01
 TEMPERATURE [K]              =                     561.872              593.440
 *******************************************************************************

 FOBSH| *** OFF-DIAGONAL GRADIENT CALCULATION
 FOBSH| Put former active state           4 in new active state           4
 RANDOM_NUMBER_HOPPING_PROBA  0.12840580700626780     
 FOBSH| ACTIVE STATE =            4

 ENERGY| Total FORCE_EVAL ( MIXED ) energy (a.u.):             2.481488085148858

 FOBSH| CASE1: no hop and no trivial crossing
 ENTER integrator.F
 STEP NUMBER                  =           26
 CPU TIME [s]                 =    7.5339089147746563E-002   2.6129118752164326     

 *******************************************************************************
 ENSEMBLE TYPE                =                                              NVE
 STEP NUMBER                  =                                               26
 TIME [fs]                    =                                         2.600000
 CONSERVED QUANTITY [hartree] =                               0.485846495318E+01

                                              INSTANTANEOUS             AVERAGES
 CPU TIME [s]                 =                        0.08                 2.61
 ENERGY DRIFT PER ATOM [K]    =          0.382460247027E-01  -0.204236173212E-01
 POTENTIAL ENERGY[hartree]    =          0.248148808515E+01   0.233009057252E+01
 KINETIC ENERGY [hartree]     =          0.237697686804E+01   0.252820632360E+01
 TEMPERATURE [K]              =                     556.610              592.023
 *******************************************************************************

 FOBSH| *** OFF-DIAGONAL GRADIENT CALCULATION
 FOBSH| Put former active state           4 in new active state           4
 RANDOM_NUMBER_HOPPING_PROBA  0.80710812468977888     
 FOBSH| ACTIVE STATE =            4

 ENERGY| Total FORCE_EVAL ( MIXED ) energy (a.u.):             2.503179465759378

 FOBSH| CASE1: no hop and no trivial crossing
 ENTER integrator.F
 STEP NUMBER                  =           27
 CPU TIME [s]                 =    7.5461097992956638E-002   2.5189322168007480     

 *******************************************************************************
 ENSEMBLE TYPE                =                                              NVE
 STEP NUMBER                  =                                               27
 TIME [fs]                    =                                         2.700000
 CONSERVED QUANTITY [hartree] =                               0.485848685834E+01

                                              INSTANTANEOUS             AVERAGES
 CPU TIME [s]                 =                        0.08                 2.52
 ENERGY DRIFT PER ATOM [K]    =          0.459316817634E-01  -0.179660136514E-01
 POTENTIAL ENERGY[hartree]    =          0.250317946576E+01   0.233650127227E+01
 KINETIC ENERGY [hartree]     =          0.235530739258E+01   0.252180265949E+01
 TEMPERATURE [K]              =                     551.536              590.524
 *******************************************************************************

 FOBSH| *** OFF-DIAGONAL GRADIENT CALCULATION
 FOBSH| Put former active state           4 in new active state           4
 RANDOM_NUMBER_HOPPING_PROBA  0.36348714134779886     
 FOBSH| ACTIVE STATE =            4

 ENERGY| Total FORCE_EVAL ( MIXED ) energy (a.u.):             2.523717250566029

 FOBSH| CASE1: no hop and no trivial crossing
 ENTER integrator.F
 STEP NUMBER                  =           28
 CPU TIME [s]                 =    7.4931942857801914E-002   2.4316464927313568     

 *******************************************************************************
 ENSEMBLE TYPE                =                                              NVE
 STEP NUMBER                  =                                               28
 TIME [fs]                    =                                         2.800000
 CONSERVED QUANTITY [hartree] =                               0.485850785537E+01

                                              INSTANTANEOUS             AVERAGES
 CPU TIME [s]                 =                        0.07                 2.43
 ENERGY DRIFT PER ATOM [K]    =          0.532987145066E-01  -0.154208447886E-01
 POTENTIAL ENERGY[hartree]    =          0.252371725057E+01   0.234318755721E+01
 KINETIC ENERGY [hartree]     =          0.233479060480E+01   0.251512365753E+01
 TEMPERATURE [K]              =                     546.732              588.960
 *******************************************************************************

 FOBSH| *** OFF-DIAGONAL GRADIENT CALCULATION
 FOBSH| Put former active state           4 in new active state           4
 RANDOM_NUMBER_HOPPING_PROBA  0.85522378722358217     
 FOBSH| ACTIVE STATE =            4

 ENERGY| Total FORCE_EVAL ( MIXED ) energy (a.u.):             2.542762253832845

 FOBSH| CASE1: no hop and no trivial crossing
 ENTER integrator.F
 STEP NUMBER                  =           29
 CPU TIME [s]                 =    7.5068743899464607E-002   2.3503851910474984     

 *******************************************************************************
 ENSEMBLE TYPE                =                                              NVE
 STEP NUMBER                  =                                               29
 TIME [fs]                    =                                         2.900000
 CONSERVED QUANTITY [hartree] =                               0.485852773777E+01

                                              INSTANTANEOUS             AVERAGES
 CPU TIME [s]                 =                        0.08                 2.35
 ENERGY DRIFT PER ATOM [K]    =          0.602746703685E-01  -0.128106546107E-01
 POTENTIAL ENERGY[hartree]    =          0.254276225383E+01   0.235006944330E+01
 KINETIC ENERGY [hartree]     =          0.231576548394E+01   0.250824923775E+01
 TEMPERATURE [K]              =                     542.277              587.350
 *******************************************************************************

 FOBSH| *** OFF-DIAGONAL GRADIENT CALCULATION
 FOBSH| Put former active state           4 in new active state           4
 RANDOM_NUMBER_HOPPING_PROBA  0.67034729650063396     
 FOBSH| ACTIVE STATE =            4

 ENERGY| Total FORCE_EVAL ( MIXED ) energy (a.u.):             2.559993265267019

 FOBSH| CASE1: no hop and no trivial crossing
 ENTER integrator.F
 STEP NUMBER                  =           30
 CPU TIME [s]                 =    7.4972016736865044E-002   2.2745380852371442     

 *******************************************************************************
 ENSEMBLE TYPE                =                                              NVE
 STEP NUMBER                  =                                               30
 TIME [fs]                    =                                         3.000000
 CONSERVED QUANTITY [hartree] =                               0.485854636007E+01

                                              INSTANTANEOUS             AVERAGES
 CPU TIME [s]                 =                        0.07                 2.27
 ENERGY DRIFT PER ATOM [K]    =          0.668085019307E-01  -0.101566827260E-01
 POTENTIAL ENERGY[hartree]    =          0.255999326527E+01   0.235706690403E+01
 KINETIC ENERGY [hartree]     =          0.229855309480E+01   0.250125936632E+01
 TEMPERATURE [K]              =                     538.246              585.713
 *******************************************************************************

 FOBSH| *** OFF-DIAGONAL GRADIENT CALCULATION
 FOBSH| Put former active state           4 in new active state           4
 FOBSH| *** WARNING: difference between exact flux and sum of Tully's proba is  0.18496931844231806      ***
 RANDOM_NUMBER_HOPPING_PROBA  0.95194410928626894     
 FOBSH| ATTEMPTED_HOP
 FOBSH| ACTIVE STATE =            4

 ENERGY| Total FORCE_EVAL ( MIXED ) energy (a.u.):             2.575108384232444

 FOBSH| Active state before the attempt to hop:           4

 ENERGY| Total FORCE_EVAL ( MIXED ) energy (a.u.):             2.575229070538083

 FOBSH| Active state after the attempt to hop:           5
 FOBSH| Possible trivial crossing
 FOBSH| CASE5: successful hop and maybe a crossing, final overlap is :   5.6063377940887914E-002
 FOBSH| We were localized on molecule           1
 FOBSH| And now on molecule           1
 ENTER integrator.F
 STEP NUMBER                  =           31
 CPU TIME [s]                 =    9.5330024138092995E-002   2.2042410510081423     

 *******************************************************************************
 ENSEMBLE TYPE                =                                              NVE
 STEP NUMBER                  =                                               31
 TIME [fs]                    =                                         3.100000
 CONSERVED QUANTITY [hartree] =                               0.485856424497E+01

                                              INSTANTANEOUS             AVERAGES
 CPU TIME [s]                 =                        0.10                 2.20
 ENERGY DRIFT PER ATOM [K]    =          0.730836117280E-01  -0.747151193718E-02
 POTENTIAL ENERGY[hartree]    =          0.257522907054E+01   0.236410439327E+01
 KINETIC ENERGY [hartree]     =          0.228333517443E+01   0.249422955368E+01
 TEMPERATURE [K]              =                     534.683              584.067
 *******************************************************************************

 FOBSH| *** OFF-DIAGONAL GRADIENT CALCULATION
 FOBSH| Put former active state           5 in new active state           5
 FOBSH| *** WARNING: difference between exact flux and sum of Tully's proba is  0.20853813817756822      ***
 RANDOM_NUMBER_HOPPING_PROBA  0.40303366510919353     
 FOBSH| ACTIVE STATE =            5

 ENERGY| Total FORCE_EVAL ( MIXED ) energy (a.u.):             2.587969842173377

 FOBSH| CASE1: no hop and no trivial crossing
 ENTER integrator.F
 STEP NUMBER                  =           32
 CPU TIME [s]                 =    7.4733056128025055E-002   2.1376939261681387     

 *******************************************************************************
 ENSEMBLE TYPE                =                                              NVE
 STEP NUMBER                  =                                               32
 TIME [fs]                    =                                         3.200000
 CONSERVED QUANTITY [hartree] =                               0.485857854509E+01

                                              INSTANTANEOUS             AVERAGES
 CPU TIME [s]                 =                        0.07                 2.14
 ENERGY DRIFT PER ATOM [K]    =          0.781009631763E-01  -0.479737208989E-02
 POTENTIAL ENERGY[hartree]    =          0.258796984217E+01   0.237110018855E+01
 KINETIC ENERGY [hartree]     =          0.227060870292E+01   0.248724140209E+01
 TEMPERATURE [K]              =                     531.702              582.431
 *******************************************************************************

 FOBSH| *** OFF-DIAGONAL GRADIENT CALCULATION
 FOBSH| Put former active state           5 in new active state           5
 RANDOM_NUMBER_HOPPING_PROBA   6.3990691283266954E-002
 FOBSH| ACTIVE STATE =            5

 ENERGY| Total FORCE_EVAL ( MIXED ) energy (a.u.):             2.598123180500640

 FOBSH| CASE1: no hop and no trivial crossing
 ENTER integrator.F
 STEP NUMBER                  =           33
 CPU TIME [s]                 =    7.4794894084334373E-002   2.0751818342868114     

 *******************************************************************************
 ENSEMBLE TYPE                =                                              NVE
 STEP NUMBER                  =                                               33
 TIME [fs]                    =                                         3.300000
 CONSERVED QUANTITY [hartree] =                               0.485859152977E+01

                                              INSTANTANEOUS             AVERAGES
 CPU TIME [s]                 =                        0.07                 2.08
 ENERGY DRIFT PER ATOM [K]    =          0.826567779029E-01  -0.214724633253E-02
 POTENTIAL ENERGY[hartree]    =          0.259812318050E+01   0.237797967316E+01
 KINETIC ENERGY [hartree]     =          0.226046834927E+01   0.248036949140E+01
 TEMPERATURE [K]              =                     529.328              580.822
 *******************************************************************************

 FOBSH| *** OFF-DIAGONAL GRADIENT CALCULATION
 FOBSH| Put former active state           5 in new active state           5
 RANDOM_NUMBER_HOPPING_PROBA  0.44240387110505380     
 FOBSH| ACTIVE STATE =            5

 ENERGY| Total FORCE_EVAL ( MIXED ) energy (a.u.):             2.605482503566265

 FOBSH| CASE1: no hop and no trivial crossing
 ENTER integrator.F
 STEP NUMBER                  =           34
 CPU TIME [s]                 =    7.4974930845201015E-002   2.0163522194797050     

 *******************************************************************************
 ENSEMBLE TYPE                =                                              NVE
 STEP NUMBER                  =                                               34
 TIME [fs]                    =                                         3.400000
 CONSERVED QUANTITY [hartree] =                               0.485860170295E+01

                                              INSTANTANEOUS             AVERAGES
 CPU TIME [s]                 =                        0.07                 2.02
 ENERGY DRIFT PER ATOM [K]    =          0.862261447851E-01   0.451971053283E-03
 POTENTIAL ENERGY[hartree]    =          0.260548250357E+01   0.238467093288E+01
 KINETIC ENERGY [hartree]     =          0.225311919938E+01   0.247368565929E+01
 TEMPERATURE [K]              =                     527.607              579.256
 *******************************************************************************

 FOBSH| *** OFF-DIAGONAL GRADIENT CALCULATION
 FOBSH| Put former active state           5 in new active state           5
 RANDOM_NUMBER_HOPPING_PROBA  0.37053832739404691     
 FOBSH| ACTIVE STATE =            5

 ENERGY| Total FORCE_EVAL ( MIXED ) energy (a.u.):             2.609882731573767

 FOBSH| CASE1: no hop and no trivial crossing
 ENTER integrator.F
 STEP NUMBER                  =           35
 CPU TIME [s]                 =    7.4541161768138409E-002   1.9608719035450888     

 *******************************************************************************
 ENSEMBLE TYPE                =                                              NVE
 STEP NUMBER                  =                                               35
 TIME [fs]                    =                                         3.500000
 CONSERVED QUANTITY [hartree] =                               0.485860915124E+01

                                              INSTANTANEOUS             AVERAGES
 CPU TIME [s]                 =                        0.07                 1.96
 ENERGY DRIFT PER ATOM [K]    =          0.888394579658E-01   0.297732782221E-02
 POTENTIAL ENERGY[hartree]    =          0.260988273157E+01   0.239110555570E+01
 KINETIC ENERGY [hartree]     =          0.224872641967E+01   0.246725825244E+01
 TEMPERATURE [K]              =                     526.578              577.751
 *******************************************************************************

 FOBSH| *** OFF-DIAGONAL GRADIENT CALCULATION
 FOBSH| Put former active state           5 in new active state           5
 RANDOM_NUMBER_HOPPING_PROBA  0.79109232280105435     
 FOBSH| ACTIVE STATE =            5

 ENERGY| Total FORCE_EVAL ( MIXED ) energy (a.u.):             2.611201686446511

 FOBSH| CASE1: no hop and no trivial crossing
 ENTER integrator.F
 STEP NUMBER                  =           36
 CPU TIME [s]                 =    7.4919072911143303E-002   1.9084843249163681     

 *******************************************************************************
 ENSEMBLE TYPE                =                                              NVE
 STEP NUMBER                  =                                               36
 TIME [fs]                    =                                         3.600000
 CONSERVED QUANTITY [hartree] =                               0.485861392630E+01

                                              INSTANTANEOUS             AVERAGES
 CPU TIME [s]                 =                        0.07                 1.91
 ENERGY DRIFT PER ATOM [K]    =          0.905148387569E-01   0.540892534818E-02
 POTENTIAL ENERGY[hartree]    =          0.261120168645E+01   0.239721933711E+01
 KINETIC ENERGY [hartree]     =          0.224741223985E+01   0.246115141876E+01
 TEMPERATURE [K]              =                     526.271              576.321
 *******************************************************************************

 FOBSH| *** OFF-DIAGONAL GRADIENT CALCULATION
 FOBSH| Put former active state           5 in new active state           5
 RANDOM_NUMBER_HOPPING_PROBA   9.1827710182444136E-002
 FOBSH| ACTIVE STATE =            5

 ENERGY| Total FORCE_EVAL ( MIXED ) energy (a.u.):             2.609360026466518

 FOBSH| CASE1: no hop and no trivial crossing
 ENTER integrator.F
 STEP NUMBER                  =           37
 CPU TIME [s]                 =    7.4647358618676662E-002   1.8589211636650793     

 *******************************************************************************
 ENSEMBLE TYPE                =                                              NVE
 STEP NUMBER                  =                                               37
 TIME [fs]                    =                                         3.700000
 CONSERVED QUANTITY [hartree] =                               0.485861597700E+01

                                              INSTANTANEOUS             AVERAGES
 CPU TIME [s]                 =                        0.07                 1.86
 ENERGY DRIFT PER ATOM [K]    =          0.912343495105E-01   0.772853140662E-02
 POTENTIAL ENERGY[hartree]    =          0.260936002647E+01   0.240295286925E+01
 KINETIC ENERGY [hartree]     =          0.224925595053E+01   0.245542451421E+01
 TEMPERATURE [K]              =                     526.702              574.980
 *******************************************************************************

 FOBSH| *** OFF-DIAGONAL GRADIENT CALCULATION
 FOBSH| Put former active state           5 in new active state           5
 RANDOM_NUMBER_HOPPING_PROBA  0.93278955296152910     
 FOBSH| ACTIVE STATE =            5

 ENERGY| Total FORCE_EVAL ( MIXED ) energy (a.u.):             2.604321901579461

 FOBSH| CASE1: no hop and no trivial crossing
 ENTER integrator.F
 STEP NUMBER                  =           38
 CPU TIME [s]                 =    7.4753233231604099E-002   1.8119693760220930     

 *******************************************************************************
 ENSEMBLE TYPE                =                                              NVE
 STEP NUMBER                  =                                               38
 TIME [fs]                    =                                         3.800000
 CONSERVED QUANTITY [hartree] =                               0.485861530091E+01

                                              INSTANTANEOUS             AVERAGES
 CPU TIME [s]                 =                        0.07                 1.81
 ENERGY DRIFT PER ATOM [K]    =          0.909971347408E-01   0.991981044173E-02
 POTENTIAL ENERGY[hartree]    =          0.260432190158E+01   0.240825205431E+01
 KINETIC ENERGY [hartree]     =          0.225429339933E+01   0.245013159013E+01
 TEMPERATURE [K]              =                     527.882              573.741
 *******************************************************************************

 FOBSH| *** OFF-DIAGONAL GRADIENT CALCULATION
 FOBSH| Put former active state           5 in new active state           5
 RANDOM_NUMBER_HOPPING_PROBA  0.66895875268229765     
 FOBSH| ACTIVE STATE =            5

 ENERGY| Total FORCE_EVAL ( MIXED ) energy (a.u.):             2.596095258401541

 FOBSH| CASE1: no hop and no trivial crossing
 ENTER integrator.F
 STEP NUMBER                  =           39
 CPU TIME [s]                 =    7.5024263933300972E-002   1.7674323218659702     

 *******************************************************************************
 ENSEMBLE TYPE                =                                              NVE
 STEP NUMBER                  =                                               39
 TIME [fs]                    =                                         3.900000
 CONSERVED QUANTITY [hartree] =                               0.485861188173E+01

                                              INSTANTANEOUS             AVERAGES
 CPU TIME [s]                 =                        0.08                 1.77
 ENERGY DRIFT PER ATOM [K]    =          0.897974792254E-01   0.119679557952E-01
 POTENTIAL ENERGY[hartree]    =          0.259609525840E+01   0.241306854672E+01
 KINETIC ENERGY [hartree]     =          0.226251662333E+01   0.244532094996E+01
 TEMPERATURE [K]              =                     529.807              572.614
 *******************************************************************************

 FOBSH| *** OFF-DIAGONAL GRADIENT CALCULATION
 FOBSH| Put former active state           5 in new active state           5
 RANDOM_NUMBER_HOPPING_PROBA   7.0495669884397497E-002
 FOBSH| ACTIVE STATE =            5

 ENERGY| Total FORCE_EVAL ( MIXED ) energy (a.u.):             2.584731905126080

 FOBSH| CASE1: no hop and no trivial crossing
 ENTER integrator.F
 STEP NUMBER                  =           40
 CPU TIME [s]                 =    7.5122756883502007E-002   1.7251245827414086     

 *******************************************************************************
 ENSEMBLE TYPE                =                                              NVE
 STEP NUMBER                  =                                               40
 TIME [fs]                    =                                         4.000000
 CONSERVED QUANTITY [hartree] =                               0.485860578609E+01

                                              INSTANTANEOUS             AVERAGES
 CPU TIME [s]                 =                        0.08                 1.73
 ENERGY DRIFT PER ATOM [K]    =          0.876587589390E-01   0.138602258737E-01
 POTENTIAL ENERGY[hartree]    =          0.258473190513E+01   0.241736013068E+01
 KINETIC ENERGY [hartree]     =          0.227387388096E+01   0.244103477323E+01
 TEMPERATURE [K]              =                     532.467              571.611
 *******************************************************************************

 FOBSH| *** OFF-DIAGONAL GRADIENT CALCULATION
 FOBSH| Put former active state           5 in new active state           5
 RANDOM_NUMBER_HOPPING_PROBA  0.44837893062802447     
 FOBSH| ACTIVE STATE =            5

 ENERGY| Total FORCE_EVAL ( MIXED ) energy (a.u.):             2.570326843176383

 FOBSH| CASE1: no hop and no trivial crossing
 ENTER integrator.F
 STEP NUMBER                  =           41
 CPU TIME [s]                 =    7.4857978150248528E-002   1.6848741777513803     

 *******************************************************************************
 ENSEMBLE TYPE                =                                              NVE
 STEP NUMBER                  =                                               41
 TIME [fs]                    =                                         4.100000
 CONSERVED QUANTITY [hartree] =                               0.485859705026E+01

                                              INSTANTANEOUS             AVERAGES
 CPU TIME [s]                 =                        0.07                 1.68
 ENERGY DRIFT PER ATOM [K]    =          0.845936996639E-01   0.155854325516E-01
 POTENTIAL ENERGY[hartree]    =          0.257032684318E+01   0.242109102611E+01
 KINETIC ENERGY [hartree]     =          0.228827020708E+01   0.243730880821E+01
 TEMPERATURE [K]              =                     535.838              570.738
 *******************************************************************************

 FOBSH| *** OFF-DIAGONAL GRADIENT CALCULATION
 FOBSH| Put former active state           5 in new active state           5
 RANDOM_NUMBER_HOPPING_PROBA  0.53199482212190596     
 FOBSH| ACTIVE STATE =            5

 ENERGY| Total FORCE_EVAL ( MIXED ) energy (a.u.):             2.553017288149582

 FOBSH| CASE1: no hop and no trivial crossing
 ENTER integrator.F
 STEP NUMBER                  =           42
 CPU TIME [s]                 =    7.5140239670872688E-002   1.6465471792256536     

 *******************************************************************************
 ENSEMBLE TYPE                =                                              NVE
 STEP NUMBER                  =                                               42
 TIME [fs]                    =                                         4.200000
 CONSERVED QUANTITY [hartree] =                               0.485858579513E+01

                                              INSTANTANEOUS             AVERAGES
 CPU TIME [s]                 =                        0.08                 1.65
 ENERGY DRIFT PER ATOM [K]    =          0.806447181739E-01   0.171344631616E-01
 POTENTIAL ENERGY[hartree]    =          0.255301728815E+01   0.242423212759E+01
 KINETIC ENERGY [hartree]     =          0.230556850699E+01   0.243417213437E+01
 TEMPERATURE [K]              =                     539.889              570.004
 *******************************************************************************

 FOBSH| *** OFF-DIAGONAL GRADIENT CALCULATION
 FOBSH| Put former active state           5 in new active state           5
 RANDOM_NUMBER_HOPPING_PROBA  0.57730720845980099     
 FOBSH| ACTIVE STATE =            5

 ENERGY| Total FORCE_EVAL ( MIXED ) energy (a.u.):             2.532980925269723

 FOBSH| CASE1: no hop and no trivial crossing
 ENTER integrator.F
 STEP NUMBER                  =           43
 CPU TIME [s]                 =    7.4915564619004726E-002   1.6099976067929407     

 *******************************************************************************
 ENSEMBLE TYPE                =                                              NVE
 STEP NUMBER                  =                                               43
 TIME [fs]                    =                                         4.300000
 CONSERVED QUANTITY [hartree] =                               0.485857215545E+01

                                              INSTANTANEOUS             AVERAGES
 CPU TIME [s]                 =                        0.07                 1.61
 ENERGY DRIFT PER ATOM [K]    =          0.758590884012E-01   0.185001521207E-01
 POTENTIAL ENERGY[hartree]    =          0.253298092527E+01   0.242676116939E+01
 KINETIC ENERGY [hartree]     =          0.232559123018E+01   0.243164699706E+01
 TEMPERATURE [K]              =                     544.577              569.412
 *******************************************************************************

 FOBSH| *** OFF-DIAGONAL GRADIENT CALCULATION
 FOBSH| Put former active state           5 in new active state           5
 RANDOM_NUMBER_HOPPING_PROBA   1.6928433561957019E-002
 FOBSH| ACTIVE STATE =            5

 ENERGY| Total FORCE_EVAL ( MIXED ) energy (a.u.):             2.510433707899315

 FOBSH| CASE1: no hop and no trivial crossing
 ENTER integrator.F
 STEP NUMBER                  =           44
 CPU TIME [s]                 =    7.6526628807187080E-002   1.5751459936569010     

 *******************************************************************************
 ENSEMBLE TYPE                =                                              NVE
 STEP NUMBER                  =                                               44
 TIME [fs]                    =                                         4.400000
 CONSERVED QUANTITY [hartree] =                               0.485855630404E+01

                                              INSTANTANEOUS             AVERAGES
 CPU TIME [s]                 =                        0.08                 1.58
 ENERGY DRIFT PER ATOM [K]    =          0.702974531659E-01   0.196773635081E-01
 POTENTIAL ENERGY[hartree]    =          0.251043370790E+01   0.242866281800E+01
 KINETIC ENERGY [hartree]     =          0.234812259615E+01   0.242974871522E+01
 TEMPERATURE [K]              =                     549.854              568.968
 *******************************************************************************

 FOBSH| *** OFF-DIAGONAL GRADIENT CALCULATION
 FOBSH| Put former active state           5 in new active state           5
 RANDOM_NUMBER_HOPPING_PROBA  0.13144936141126493     
 FOBSH| ACTIVE STATE =            5

 ENERGY| Total FORCE_EVAL ( MIXED ) energy (a.u.):             2.485627154808179

 FOBSH| CASE1: no hop and no trivial crossing
 ENTER integrator.F
 STEP NUMBER                  =           45
 CPU TIME [s]                 =    7.5068642385303974E-002   1.5418109414064209     

 *******************************************************************************
 ENSEMBLE TYPE                =                                              NVE
 STEP NUMBER                  =                                               45
 TIME [fs]                    =                                         4.500000
 CONSERVED QUANTITY [hartree] =                               0.485853843355E+01

                                              INSTANTANEOUS             AVERAGES
 CPU TIME [s]                 =                        0.08                 1.54
 ENERGY DRIFT PER ATOM [K]    =          0.640273994330E-01   0.206629198620E-01
 POTENTIAL ENERGY[hartree]    =          0.248562715481E+01   0.242992869215E+01
 KINETIC ENERGY [hartree]     =          0.237291127874E+01   0.242848566108E+01
 TEMPERATURE [K]              =                     555.658              568.672
 *******************************************************************************

 FOBSH| *** OFF-DIAGONAL GRADIENT CALCULATION
 FOBSH| Put former active state           5 in new active state           5
 RANDOM_NUMBER_HOPPING_PROBA   6.6529961963703879E-002
 FOBSH| ACTIVE STATE =            5

 ENERGY| Total FORCE_EVAL ( MIXED ) energy (a.u.):             2.458845262495317

 FOBSH| CASE1: no hop and no trivial crossing
 ENTER integrator.F
 STEP NUMBER                  =           46
 CPU TIME [s]                 =    7.5077081099152565E-002   1.5099254227040890     

 *******************************************************************************
 ENSEMBLE TYPE                =                                              NVE
 STEP NUMBER                  =                                               46
 TIME [fs]                    =                                         4.600000
 CONSERVED QUANTITY [hartree] =                               0.485851878332E+01

                                              INSTANTANEOUS             AVERAGES
 CPU TIME [s]                 =                        0.08                 1.51
 ENERGY DRIFT PER ATOM [K]    =          0.571329038975E-01   0.214557456019E-01
 POTENTIAL ENERGY[hartree]    =          0.245884526250E+01   0.243055731324E+01
 KINETIC ENERGY [hartree]     =          0.239967352082E+01   0.242785931020E+01
 TEMPERATURE [K]              =                     561.925              568.525
 *******************************************************************************

 FOBSH| *** OFF-DIAGONAL GRADIENT CALCULATION
 FOBSH| Put former active state           5 in new active state           5
 RANDOM_NUMBER_HOPPING_PROBA  0.13624522447097273     
 FOBSH| ACTIVE STATE =            5

 ENERGY| Total FORCE_EVAL ( MIXED ) energy (a.u.):             2.430400836316044

 FOBSH| CASE1: no hop and no trivial crossing
 ENTER integrator.F
 STEP NUMBER                  =           47
 CPU TIME [s]                 =    7.5347735546529293E-002   1.4794024931900984     

 *******************************************************************************
 ENSEMBLE TYPE                =                                              NVE
 STEP NUMBER                  =                                               47
 TIME [fs]                    =                                         4.700000
 CONSERVED QUANTITY [hartree] =                               0.485849758469E+01

                                              INSTANTANEOUS             AVERAGES
 CPU TIME [s]                 =                        0.08                 1.48
 ENERGY DRIFT PER ATOM [K]    =          0.496951392181E-01   0.220565837639E-01
 POTENTIAL ENERGY[hartree]    =          0.243040083632E+01   0.243055398395E+01
 KINETIC ENERGY [hartree]     =          0.242809674838E+01   0.242786436208E+01
 TEMPERATURE [K]              =                     568.581              568.527
 *******************************************************************************

 FOBSH| *** OFF-DIAGONAL GRADIENT CALCULATION
 FOBSH| Put former active state           5 in new active state           5
 RANDOM_NUMBER_HOPPING_PROBA  0.53373438748921098     
 FOBSH| ACTIVE STATE =            5

 ENERGY| Total FORCE_EVAL ( MIXED ) energy (a.u.):             2.400631559094439

 FOBSH| CASE1: no hop and no trivial crossing
 ENTER integrator.F
 STEP NUMBER                  =           48
 CPU TIME [s]                 =    7.4697219766676426E-002   1.4501377999937770     

 *******************************************************************************
 ENSEMBLE TYPE                =                                              NVE
 STEP NUMBER                  =                                               48
 TIME [fs]                    =                                         4.800000
 CONSERVED QUANTITY [hartree] =                               0.485847511323E+01

                                              INSTANTANEOUS             AVERAGES
 CPU TIME [s]                 =                        0.07                 1.45
 ENERGY DRIFT PER ATOM [K]    =          0.418107863726E-01   0.224681296516E-01
[...]
 KINETIC ENERGY [hartree]     =          0.237623668929E+01   0.246621839189E+01
 TEMPERATURE [K]              =                     556.437              577.508
 *******************************************************************************

 FOBSH| *** OFF-DIAGONAL GRADIENT CALCULATION
 FOBSH| New map:            1           2           3           4           5           6           0           0
 FOBSH! New map again:           1           2           3           4           5           6           0           0
 FOBSH| Put former active state           1 in new active state           1
 RANDOM_NUMBER_HOPPING_PROBA  0.82195477349837154     
 FOBSH| ACTIVE STATE =            1

 ENERGY| Total FORCE_EVAL ( MIXED ) energy (a.u.):             2.512923412768608

 FOBSH| CASE1: no hop and no trivial crossing
 ENTER integrator.F
 STEP NUMBER                  =          191
 CPU TIME [s]                 =    3.9786643348634243E-002  0.41476539074789442     

 *******************************************************************************
 ENSEMBLE TYPE                =                                              NVE
 STEP NUMBER                  =                                              191
 TIME [fs]                    =                                        19.100000
 CONSERVED QUANTITY [hartree] =                               0.485843299623E+01

                                              INSTANTANEOUS             AVERAGES
 CPU TIME [s]                 =                        0.04                 0.41
 ENERGY DRIFT PER ATOM [K]    =          0.270335841553E-01   0.118435854853E-01
 POTENTIAL ENERGY[hartree]    =          0.251292341277E+01   0.239280317966E+01
 KINETIC ENERGY [hartree]     =          0.234550958346E+01   0.246558640860E+01
 TEMPERATURE [K]              =                     549.242              577.360
 *******************************************************************************

 FOBSH| *** OFF-DIAGONAL GRADIENT CALCULATION
 FOBSH| Put former active state           1 in new active state           1
 RANDOM_NUMBER_HOPPING_PROBA  0.47798716356543131     
 FOBSH| ACTIVE STATE =            1

 ENERGY| Total FORCE_EVAL ( MIXED ) energy (a.u.):             2.543161679846264

 FOBSH| CASE1: no hop and no trivial crossing
 ENTER integrator.F
 STEP NUMBER                  =          192
 CPU TIME [s]                 =    4.0018301457166672E-002  0.41281358299117188     

 *******************************************************************************
 ENSEMBLE TYPE                =                                              NVE
 STEP NUMBER                  =                                              192
 TIME [fs]                    =                                        19.200000
 CONSERVED QUANTITY [hartree] =                               0.485845704478E+01

                                              INSTANTANEOUS             AVERAGES
 CPU TIME [s]                 =                        0.04                 0.41
 ENERGY DRIFT PER ATOM [K]    =          0.354712764506E-01   0.119666463757E-01
 POTENTIAL ENERGY[hartree]    =          0.254316167985E+01   0.239358629685E+01
 KINETIC ENERGY [hartree]     =          0.231529536493E+01   0.246480364275E+01
 TEMPERATURE [K]              =                     542.167              577.176
 *******************************************************************************

 FOBSH| *** OFF-DIAGONAL GRADIENT CALCULATION
 FOBSH| Put former active state           1 in new active state           1
 RANDOM_NUMBER_HOPPING_PROBA  0.19068212869155288     
 FOBSH| ACTIVE STATE =            1

 ENERGY| Total FORCE_EVAL ( MIXED ) energy (a.u.):             2.572507379273308

 FOBSH| CASE1: no hop and no trivial crossing
 ENTER integrator.F
 STEP NUMBER                  =          193
 CPU TIME [s]                 =    3.9881867356598377E-002  0.41088129430912745     

 *******************************************************************************
 ENSEMBLE TYPE                =                                              NVE
 STEP NUMBER                  =                                              193
 TIME [fs]                    =                                        19.300000
 CONSERVED QUANTITY [hartree] =                               0.485848041883E+01

                                              INSTANTANEOUS             AVERAGES
 CPU TIME [s]                 =                        0.04                 0.41
 ENERGY DRIFT PER ATOM [K]    =          0.436723108653E-01   0.121309244301E-01
 POTENTIAL ENERGY[hartree]    =          0.257250737927E+01   0.239451334909E+01
 KINETIC ENERGY [hartree]     =          0.228597303955E+01   0.246387705931E+01
 TEMPERATURE [K]              =                     535.300              576.960
 *******************************************************************************

 FOBSH| *** OFF-DIAGONAL GRADIENT CALCULATION
 FOBSH| Put former active state           1 in new active state           1
 RANDOM_NUMBER_HOPPING_PROBA   3.9019510409808292E-002
 FOBSH| ACTIVE STATE =            1

 ENERGY| Total FORCE_EVAL ( MIXED ) energy (a.u.):             2.600591327166679

 FOBSH| CASE1: no hop and no trivial crossing
 ENTER integrator.F
 STEP NUMBER                  =          194
 CPU TIME [s]                 =    3.9953265339136124E-002  0.40896929415979760     

 *******************************************************************************
 ENSEMBLE TYPE                =                                              NVE
 STEP NUMBER                  =                                              194
 TIME [fs]                    =                                        19.400000
 CONSERVED QUANTITY [hartree] =                               0.485850277738E+01

                                              INSTANTANEOUS             AVERAGES
 CPU TIME [s]                 =                        0.04                 0.41
 ENERGY DRIFT PER ATOM [K]    =          0.515170501843E-01   0.123339456969E-01
 POTENTIAL ENERGY[hartree]    =          0.260059132717E+01   0.239557560671E+01
 KINETIC ENERGY [hartree]     =          0.225791145022E+01   0.246281538091E+01
 TEMPERATURE [K]              =                     528.729              576.711
 *******************************************************************************

 FOBSH| *** OFF-DIAGONAL GRADIENT CALCULATION
 FOBSH| Put former active state           1 in new active state           1
 RANDOM_NUMBER_HOPPING_PROBA  0.20961789847363788     
 FOBSH| ACTIVE STATE =            1

 ENERGY| Total FORCE_EVAL ( MIXED ) energy (a.u.):             2.627059633276797

 FOBSH| CASE1: no hop and no trivial crossing
 ENTER integrator.F
 STEP NUMBER                  =          195
 CPU TIME [s]                 =    3.9787500165402889E-002  0.40707605419059556     

 *******************************************************************************
 ENSEMBLE TYPE                =                                              NVE
 STEP NUMBER                  =                                              195
 TIME [fs]                    =                                        19.500000
 CONSERVED QUANTITY [hartree] =                               0.485852388156E+01

                                              INSTANTANEOUS             AVERAGES
 CPU TIME [s]                 =                        0.04                 0.41
 ENERGY DRIFT PER ATOM [K]    =          0.589216781956E-01   0.125728571456E-01
 POTENTIAL ENERGY[hartree]    =          0.262705963328E+01   0.239676270428E+01
 KINETIC ENERGY [hartree]     =          0.223146424829E+01   0.246162896485E+01
 TEMPERATURE [K]              =                     522.536              576.433
 *******************************************************************************

 FOBSH| *** OFF-DIAGONAL GRADIENT CALCULATION
 FOBSH| Put former active state           1 in new active state           1
 RANDOM_NUMBER_HOPPING_PROBA  0.25814674508164709     
 FOBSH| ACTIVE STATE =            1

 ENERGY| Total FORCE_EVAL ( MIXED ) energy (a.u.):             2.651577661950693

 FOBSH| CASE1: no hop and no trivial crossing
 ENTER integrator.F
 STEP NUMBER                  =          196
 CPU TIME [s]                 =    3.9998410269618034E-002  0.40520320906854973     

 *******************************************************************************
 ENSEMBLE TYPE                =                                              NVE
 STEP NUMBER                  =                                              196
 TIME [fs]                    =                                        19.600000
 CONSERVED QUANTITY [hartree] =                               0.485854355701E+01

                                              INSTANTANEOUS             AVERAGES
 CPU TIME [s]                 =                        0.04                 0.41
 ENERGY DRIFT PER ATOM [K]    =          0.658250179328E-01   0.128445518435E-01
 POTENTIAL ENERGY[hartree]    =          0.265157766195E+01   0.239806278059E+01
 KINETIC ENERGY [hartree]     =          0.220696589506E+01   0.246032966347E+01
 TEMPERATURE [K]              =                     516.799              576.129
 *******************************************************************************

 FOBSH| *** OFF-DIAGONAL GRADIENT CALCULATION
 FOBSH| Put former active state           1 in new active state           1
 RANDOM_NUMBER_HOPPING_PROBA  0.71866270817859179     
 FOBSH| ACTIVE STATE =            1

 ENERGY| Total FORCE_EVAL ( MIXED ) energy (a.u.):             2.673833312473954

 FOBSH| CASE1: no hop and no trivial crossing
 ENTER integrator.F
 STEP NUMBER                  =          197
 CPU TIME [s]                 =    3.9793443866074085E-002  0.40334833716396856     

 *******************************************************************************
 ENSEMBLE TYPE                =                                              NVE
 STEP NUMBER                  =                                              197
 TIME [fs]                    =                                        19.700000
 CONSERVED QUANTITY [hartree] =                               0.485856162149E+01

                                              INSTANTANEOUS             AVERAGES
 CPU TIME [s]                 =                        0.04                 0.40
 ENERGY DRIFT PER ATOM [K]    =          0.721631342320E-01   0.131456613987E-01
 POTENTIAL ENERGY[hartree]    =          0.267383331247E+01   0.239946263101E+01
 KINETIC ENERGY [hartree]     =          0.218472830901E+01   0.245893067182E+01
 TEMPERATURE [K]              =                     511.592              575.801
 *******************************************************************************

 FOBSH| *** OFF-DIAGONAL GRADIENT CALCULATION
 FOBSH| Put former active state           1 in new active state           1
 RANDOM_NUMBER_HOPPING_PROBA  0.40493253623739994     
 FOBSH| ACTIVE STATE =            1

 ENERGY| Total FORCE_EVAL ( MIXED ) energy (a.u.):             2.693540268947982

 FOBSH| CASE1: no hop and no trivial crossing
 ENTER integrator.F
 STEP NUMBER                  =          198
 CPU TIME [s]                 =    3.9929528720676899E-002  0.40151288863647722     

 *******************************************************************************
 ENSEMBLE TYPE                =                                              NVE
 STEP NUMBER                  =                                              198
 TIME [fs]                    =                                        19.800000
 CONSERVED QUANTITY [hartree] =                               0.485857785340E+01

                                              INSTANTANEOUS             AVERAGES
 CPU TIME [s]                 =                        0.04                 0.40
 ENERGY DRIFT PER ATOM [K]    =          0.778582763014E-01   0.134724927871E-01
 POTENTIAL ENERGY[hartree]    =          0.269354026895E+01   0.240094787160E+01
 KINETIC ENERGY [hartree]     =          0.216503758445E+01   0.245744636330E+01
 TEMPERATURE [K]              =                     506.981              575.454
 *******************************************************************************

 FOBSH| *** OFF-DIAGONAL GRADIENT CALCULATION
 FOBSH| Put former active state           1 in new active state           1
 RANDOM_NUMBER_HOPPING_PROBA  0.39979889317373046     
 FOBSH| ACTIVE STATE =            1

 ENERGY| Total FORCE_EVAL ( MIXED ) energy (a.u.):             2.710441408831995

 FOBSH| CASE1: no hop and no trivial crossing
 ENTER integrator.F
 STEP NUMBER                  =          199
 CPU TIME [s]                 =    3.9898296818137169E-002  0.39969572988362129     

 *******************************************************************************
 ENSEMBLE TYPE                =                                              NVE
 STEP NUMBER                  =                                              199
 TIME [fs]                    =                                        19.900000
 CONSERVED QUANTITY [hartree] =                               0.485859207370E+01

                                              INSTANTANEOUS             AVERAGES
 CPU TIME [s]                 =                        0.04                 0.40
 ENERGY DRIFT PER ATOM [K]    =          0.828476186271E-01   0.138211115099E-01
 POTENTIAL ENERGY[hartree]    =          0.271044140883E+01   0.240250311551E+01
 KINETIC ENERGY [hartree]     =          0.214815066486E+01   0.245589211356E+01
 TEMPERATURE [K]              =                     503.027              575.090
 *******************************************************************************

 FOBSH| *** OFF-DIAGONAL GRADIENT CALCULATION
 FOBSH| Put former active state           1 in new active state           1
 RANDOM_NUMBER_HOPPING_PROBA  0.61636574408134326     
 FOBSH| ACTIVE STATE =            1

 ENERGY| Total FORCE_EVAL ( MIXED ) energy (a.u.):             2.724311976388646

 FOBSH| CASE1: no hop and no trivial crossing
 ENTER integrator.F
 STEP NUMBER                  =          200
 CPU TIME [s]                 =    3.9919878356158733E-002  0.39789685062598396     

 *******************************************************************************
 ENSEMBLE TYPE                =                                              NVE
 STEP NUMBER                  =                                              200
 TIME [fs]                    =                                        20.000000
 CONSERVED QUANTITY [hartree] =                               0.485860407508E+01

                                              INSTANTANEOUS             AVERAGES
 CPU TIME [s]                 =                        0.04                 0.40
 ENERGY DRIFT PER ATOM [K]    =          0.870584320498E-01   0.141872981126E-01
 POTENTIAL ENERGY[hartree]    =          0.272431197639E+01   0.240411215981E+01
 KINETIC ENERGY [hartree]     =          0.213429209869E+01   0.245428411349E+01
 TEMPERATURE [K]              =                     499.781              574.713
 *******************************************************************************


 -------------------------------------------------------------------------------
 -                                                                             -
 -                                DBCSR STATISTICS                             -
 -                                                                             -
 -------------------------------------------------------------------------------
 COUNTER                                    TOTAL       BLAS       SMM       ACC
 flops total                                    0       0.0%      0.0%      0.0%
 flops max/rank                                 0       0.0%      0.0%      0.0%
 matmuls inhomo. stacks                         0       0.0%      0.0%      0.0%
 matmuls total                                  0       0.0%      0.0%      0.0%
 number of processed stacks                     0       0.0%      0.0%      0.0%
 average stack size                                     0.0       0.0       0.0
 marketing flops                     0.000000E+00
 -------------------------------------------------------------------------------

 MEMORY| Estimated peak process memory [MiB]                                 122

 -------------------------------------------------------------------------------
 -                                                                             -
 -                           R E F E R E N C E S                               -
 -                                                                             -
 -------------------------------------------------------------------------------
 
 CP2K version 4.0 (Development Version), the CP2K developers group (2015).
 CP2K is freely available from https://www.cp2k.org/ .

 Borstnik, U; VandeVondele, J; Weber, V; Hutter, J. 
 PARALLEL COMPUTING, 40 (5-6), 47-58 (2014). 
 Sparse matrix multiplication: The distributed block-compressed sparse
 row library.
 http://dx.doi.org/10.1016/j.parco.2014.03.012


 Hutter, J; Iannuzzi, M; Schiffmann, F; VandeVondele, J. 
 WILEY INTERDISCIPLINARY REVIEWS-COMPUTATIONAL MOLECULAR SCIENCE, 4 (1), 15-25 (2014). 
 CP2K: atomistic simulations of condensed matter systems.
 http://dx.doi.org/10.1002/wcms.1159


 Frigo, M; Johnson, SG. 
 PROCEEDINGS OF THE IEEE, 93 (2), 216-231 (2005). 
 The design and implementation of FFTW3.
 http://dx.doi.org/10.1109/JPROC.2004.840301


 -------------------------------------------------------------------------------
 -                                                                             -
 -                                T I M I N G                                  -
 -                                                                             -
 -------------------------------------------------------------------------------
 SUBROUTINE                       CALLS  ASD         SELF TIME        TOTAL TIME
                                MAXIMUM       AVERAGE  MAXIMUM  AVERAGE  MAXIMUM
 CP2K                                 1  1.0    0.023    0.023   89.122   89.122
 qs_mol_dyn_low                       1  2.0   14.199   14.199   79.612   79.612
 parser_read_line               2346106  3.0   18.913   18.913   56.643   56.643
 parser_read_line_low              2509  4.3   37.672   37.672   37.730   37.730
 velocity_verlet                    200  3.0    9.451    9.451   13.226   13.226
 topology_control                     3  4.0    0.226    0.226    8.833    8.833
 connectivity_control                 3  5.0    0.006    0.006    8.291    8.291
 read_topology_psf                  150  6.0    3.694    3.694    8.263    8.263
 fist_create_force_env                2  2.0    0.000    0.000    6.777    6.777
 fist_init                            2  3.0    0.001    0.001    6.777    6.777
 fist_calc_energy_force             418  4.0    0.016    0.016    4.116    4.116
 force_nonbond                      209  5.0    3.070    3.070    3.070    3.070
 mixed_create_force_env               1  2.0    0.000    0.000    2.702    2.702
 mixed_init                           1  3.0    0.000    0.000    2.702    2.702
 -------------------------------------------------------------------------------

 The number of warnings for this run is : 1
 
 -------------------------------------------------------------------------------
  **** **** ******  **  PROGRAM ENDED AT                 2021-02-12 16:45:05.933
 ***** ** ***  *** **   PROGRAM RAN ON                   bulstake.phys.ucl.ac.uk
 **    ****   ******    PROGRAM RAN BY                                 sgiannini
 ***** **    ** ** **   PROGRAM PROCESS ID                                  3519
  **** **  *******  **  PROGRAM STOPPED IN /scratch/sgiannini/FOB-SH-REGTESTS_/3
                                           3-XXX_code_extension_V2/run-fssh-ISOT
                                           ROP
