 DBCSR| Multiplication driver                                               BLAS
 DBCSR| Multrec recursion limit                                              512
 DBCSR| Multiplication stack size                                           1000
 DBCSR| Maximum elements for images                                    UNLIMITED
 DBCSR| Randmat seed                                                    12341313
 DBCSR| Multiplication size stacks                                             3


  **** **** ******  **  PROGRAM STARTED AT               2025-08-30 19:02:19.729
 ***** ** ***  *** **   PROGRAM STARTED ON                       LAPTOP-V89OQBOH
 **    ****   ******    PROGRAM STARTED BY                                   sam
 ***** **    ** ** **   PROGRAM PROCESS ID                                  1175
  **** **  *******  **  PROGRAM STARTED IN /home/sam/flavoured-cptk/regtest-fobs
                                           h/temp/run-fssh-3NAP-3ANT-mixed-inp-n
                                           o-int-NFF

 CP2K| version string:                    CP2K version 4.0 (Development Version)
 CP2K| source code revision number:                                git:8a0a0fb62
 CP2K| cp2kflags: fftw3                                                         
 CP2K| is freely available from                            https://www.cp2k.org/
 CP2K| Program compiled at                         Wed Aug 27 08:16:19 CEST 2025
 CP2K| Program compiled on                                       LAPTOP-V89OQBOH
 CP2K| Program compiled for                                      cp2k_local_dell
 CP2K| Data directory path                    /home/sam/flavoured-cptk/cp2k/data
 CP2K| Input file name                                                   run.inp

 GLOBAL| Force Environment number                                              1
 GLOBAL| Basis set file name                                           POTENTIAL
 GLOBAL| MM Potential file name                                     MM_POTENTIAL
 GLOBAL| Coordinate file name                                       pos-init.xyz
 GLOBAL| Force Environment number                                              2
 GLOBAL| Basis set file name                                           POTENTIAL
 GLOBAL| MM Potential file name                                     MM_POTENTIAL
 GLOBAL| Coordinate file name                                       pos-init.xyz
 GLOBAL| Force Environment number                                              3
 GLOBAL| Basis set file name                                           POTENTIAL
 GLOBAL| MM Potential file name                                     MM_POTENTIAL
 GLOBAL| Coordinate file name                                       pos-init.xyz
 GLOBAL| Force Environment number                                              4
 GLOBAL| Basis set file name                                           POTENTIAL
 GLOBAL| MM Potential file name                                     MM_POTENTIAL
 GLOBAL| Coordinate file name                                       pos-init.xyz
 GLOBAL| Force Environment number                                              5
 GLOBAL| Basis set file name                                           POTENTIAL
 GLOBAL| MM Potential file name                                     MM_POTENTIAL
 GLOBAL| Coordinate file name                                       pos-init.xyz
 GLOBAL| Force Environment number                                              6
 GLOBAL| Basis set file name                                           POTENTIAL
 GLOBAL| MM Potential file name                                     MM_POTENTIAL
 GLOBAL| Coordinate file name                                       pos-init.xyz
 GLOBAL| Force Environment number                                              7
 GLOBAL| Basis set file name                                           POTENTIAL
 GLOBAL| MM Potential file name                                     MM_POTENTIAL
 GLOBAL| Coordinate file name                                       pos-init.xyz
 GLOBAL| Force Environment number                                              8
 GLOBAL| Basis set file name                                           POTENTIAL
 GLOBAL| MM Potential file name                                     MM_POTENTIAL
 GLOBAL| Coordinate file name                                       pos-init.xyz
 GLOBAL| Force Environment number                                              9
 GLOBAL| Basis set file name                                           POTENTIAL
 GLOBAL| MM Potential file name                                     MM_POTENTIAL
 GLOBAL| Coordinate file name                                       pos-init.xyz
 GLOBAL| Force Environment number                                             10
 GLOBAL| Basis set file name                                           POTENTIAL
 GLOBAL| MM Potential file name                                     MM_POTENTIAL
 GLOBAL| Coordinate file name                                       pos-init.xyz
 GLOBAL| Method name                                                        CP2K
 GLOBAL| Project name                                                        run
 GLOBAL| Preferred FFT library                                             FFTW3
 GLOBAL| Preferred diagonalization lib.                                       SL
 GLOBAL| Run type                                                             MD
 GLOBAL| All-to-all communication in single precision                          F
 GLOBAL| FFTs using library dependent lengths                                  F
 GLOBAL| Global print level                                                  LOW
 GLOBAL| Total number of message passing processes                             1
 GLOBAL| Number of threads for this process                                    1
 GLOBAL| This output is from process                                           0
 GLOBAL| CPU model name :  12th Gen Intel(R) Core(TM) i7-1260P

 MEMORY| system memory details [Kb]
 MEMORY|                        rank 0           min           max       average
 MEMORY| MemTotal              7977148       7977148       7977148       7977148
 MEMORY| MemFree               4170652       4170652       4170652       4170652
 MEMORY| Buffers                  6360          6360          6360          6360
 MEMORY| Cached                1233304       1233304       1233304       1233304
 MEMORY| Slab                   199144        199144        199144        199144
 MEMORY| SReclaimable           125164        125164        125164        125164
 MEMORY| MemLikelyFree         5535480       5535480       5535480       5535480

 TOTAL NUMBER OF FORCE EVALS          10
 NOTE:n_subforce_eval           9
 DECOMP =  F
 DECOMP =  F
 DECOMP =  F
 DECOMP =  F
 DECOMP =  F
 DECOMP =  F
 DECOMP =  F
 DECOMP =  F
 DECOMP =  F

 MD| Molecular Dynamics Protocol 
 MD| Ensemble Type                                                           NVE
 MD| Number of Time Steps                                                    200
 MD| Time Step [fs]                                                         0.10
 MD| Temperature [K]                                                      300.00
 MD| Temperature tolerance [K]                                              0.00
 MD| Print MD information every                                        1 step(s)
 MD| File type     Print frequency[steps]                             File names
 MD| Coordinates          200                                      run-pos-1.xyz
 MD| Velocities             1                                      run-vel-1.xyz
 MD| Energies               1                                         run-1.ener
 MD| Dump                 200                                      run-1.restart

 ROT| Rotational Analysis Info 
 ROT| Principal axes and moments of inertia in atomic units:
 ROT|                                1                 2                 3
 ROT| EIGENVALUES            0.985896973E+10   0.107170943E+11   0.110804981E+11
 ROT|      X                    -0.154147334      -0.988042579      -0.003234479
 ROT|      Y                     0.692344076      -0.105677900      -0.713786986
 ROT|      Z                     0.704910121      -0.112267733       0.700355393
 ROT| Numer of Rotovibrational vectors:     6

 Calculation of degrees of freedom
                                                      Number of atoms:       248
                                 Number of Intramolecular constraints:         0
                                 Number of Intermolecular constraints:         0
                                  Invariants(translation + rotations):         3
                                                   Degrees of freedom:       741


 Restraints Information
                                  Number of Intramolecular restraints:         0
                                  Number of Intermolecular restraints:         0

 *** WARNING in motion/thermostat/thermostat_methods.F:280 :: Thermostat ***
 *** for Particles has been defined but the ensemble provided does not   ***
 *** support thermostat for Particles! Ignoring thermostat input.        ***

 ************************** Velocities initialization **************************
 Initial Temperature                                                      0.00 K
 COM velocity:            0.000000000000      0.000000000000      0.000000000000
 *******************************************************************************

 RESTART_KEY F
 WTP_4.2_Debug1
 ACTIVE STATE           1
 FOBSH| ACTIVE STATE =            1

 ENERGY| Total FORCE_EVAL ( MIXED ) energy (a.u.):             0.512333762608243

 STEP NUMBER                  =            0
 CPU TIME [s]                 =    0.0000000000000000        0.0000000000000000     

 MD_ENERGIES| Initialization proceeding


 ******************************** GO CP2K GO! **********************************
 INITIAL POTENTIAL ENERGY[hartree]     =                      0.512333762608E+00
 INITIAL KINETIC ENERGY[hartree]       =                      0.000000000000E+00
 INITIAL TEMPERATURE[K]                =                                   0.000
 INITIAL VOLUME[bohr^3]                =                      0.145764026995E+07
 INITIAL CELL LNTHS[bohr]   =      0.1133836E+03   0.1133836E+03   0.1133836E+03
 INITIAL CELL ANGLS[deg]    =      0.9000000E+02   0.9000000E+02   0.9000000E+02
 ******************************** GO CP2K GO! **********************************
 FOBSH| Put former active state           1 in new active state           1
 RANDOM_NUMBER_HOPPING_PROBA  0.67153030463454866     
 FOBSH| ACTIVE STATE =            1

 ENERGY| Total FORCE_EVAL ( MIXED ) energy (a.u.):             0.511467718481287

 FOBSH| CASE1: no hop and no trivial crossing
 ENTER integrator.F
 STEP NUMBER                  =            1
 CPU TIME [s]                 =    1.3260432999231853E-002   1.3260432999231853E-002

 *******************************************************************************
 ENSEMBLE TYPE                =                                              NVE
 STEP NUMBER                  =                                                1
 TIME [fs]                    =                                         0.100000
 CONSERVED QUANTITY [hartree] =                               0.512333138984E+00

                                              INSTANTANEOUS             AVERAGES
 CPU TIME [s]                 =                        0.01                 0.01
 ENERGY DRIFT PER ATOM [K]    =         -0.794050681391E-03   0.000000000000E+00
 POTENTIAL ENERGY[hartree]    =          0.511467718481E+00   0.511467718481E+00
 KINETIC ENERGY [hartree]     =          0.865420503209E-03   0.865420503209E-03
 TEMPERATURE [K]              =                       0.738                0.738
 *******************************************************************************

 FOBSH| Put former active state           1 in new active state           1
 RANDOM_NUMBER_HOPPING_PROBA  0.39187096629970736     
 FOBSH| ACTIVE STATE =            1

 ENERGY| Total FORCE_EVAL ( MIXED ) energy (a.u.):             0.508879556352333

 FOBSH| CASE1: no hop and no trivial crossing
 ENTER integrator.F
 STEP NUMBER                  =            2
 CPU TIME [s]                 =    3.1218340009218082E-003   8.1911335000768304E-003

 *******************************************************************************
 ENSEMBLE TYPE                =                                              NVE
 STEP NUMBER                  =                                                2
 TIME [fs]                    =                                         0.200000
 CONSERVED QUANTITY [hartree] =                               0.512331275827E+00

                                              INSTANTANEOUS             AVERAGES
 CPU TIME [s]                 =                        0.00                 0.01
 ENERGY DRIFT PER ATOM [K]    =         -0.316638091651E-02  -0.158319045826E-02
 POTENTIAL ENERGY[hartree]    =          0.508879556352E+00   0.510173637417E+00
 KINETIC ENERGY [hartree]     =          0.345171947468E-02   0.215856998894E-02
 TEMPERATURE [K]              =                       2.942                1.840
 *******************************************************************************

 FOBSH| Put former active state           1 in new active state           1
 RANDOM_NUMBER_HOPPING_PROBA   4.1282260461410090E-003
 FOBSH| ACTIVE STATE =            1

 ENERGY| Total FORCE_EVAL ( MIXED ) energy (a.u.):             0.504599063753067

 FOBSH| CASE1: no hop and no trivial crossing
 ENTER integrator.F
 STEP NUMBER                  =            3
 CPU TIME [s]                 =    3.7931389961158857E-003   6.7251353320898488E-003

 *******************************************************************************
 ENSEMBLE TYPE                =                                              NVE
 STEP NUMBER                  =                                                3
 TIME [fs]                    =                                         0.300000
 CONSERVED QUANTITY [hartree] =                               0.512328196179E+00

                                              INSTANTANEOUS             AVERAGES
 CPU TIME [s]                 =                        0.00                 0.01
 ENERGY DRIFT PER ATOM [K]    =         -0.708764964798E-02  -0.341801018817E-02
 POTENTIAL ENERGY[hartree]    =          0.504599063753E+00   0.508315446196E+00
 KINETIC ENERGY [hartree]     =          0.772913242632E-02   0.401542413474E-02
 TEMPERATURE [K]              =                       6.587                3.422
 *******************************************************************************

 FOBSH| Put former active state           1 in new active state           1
 RANDOM_NUMBER_HOPPING_PROBA  0.59370184584753216     
 FOBSH| ACTIVE STATE =            1

 ENERGY| Total FORCE_EVAL ( MIXED ) energy (a.u.):             0.498675477382771

 FOBSH| CASE1: no hop and no trivial crossing
 ENTER integrator.F
 STEP NUMBER                  =            4
 CPU TIME [s]                 =    3.0846010049572214E-003   5.8150017503066920E-003

 *******************************************************************************
 ENSEMBLE TYPE                =                                              NVE
 STEP NUMBER                  =                                                4
 TIME [fs]                    =                                         0.400000
 CONSERVED QUANTITY [hartree] =                               0.512323938123E+00

                                              INSTANTANEOUS             AVERAGES
 CPU TIME [s]                 =                        0.00                 0.01
 ENERGY DRIFT PER ATOM [K]    =         -0.125093681111E-01  -0.569084966890E-02
 POTENTIAL ENERGY[hartree]    =          0.498675477383E+00   0.505905453992E+00
 KINETIC ENERGY [hartree]     =          0.136484607405E-01   0.642368328617E-02
 TEMPERATURE [K]              =                      11.632                5.475
 *******************************************************************************

 FOBSH| Put former active state           1 in new active state           1
 RANDOM_NUMBER_HOPPING_PROBA  0.84108216314229423     
 FOBSH| ACTIVE STATE =            1

 ENERGY| Total FORCE_EVAL ( MIXED ) energy (a.u.):             0.491176874767900

 FOBSH| CASE1: no hop and no trivial crossing
 ENTER integrator.F
 STEP NUMBER                  =            5
 CPU TIME [s]                 =    3.0898260010872036E-003   5.2699666004627950E-003

 *******************************************************************************
 ENSEMBLE TYPE                =                                              NVE
 STEP NUMBER                  =                                                5
 TIME [fs]                    =                                         0.500000
 CONSERVED QUANTITY [hartree] =                               0.512318554296E+00

                                              INSTANTANEOUS             AVERAGES
 CPU TIME [s]                 =                        0.00                 0.01
 ENERGY DRIFT PER ATOM [K]    =         -0.193645136988E-01  -0.842558247489E-02
 POTENTIAL ENERGY[hartree]    =          0.491176874768E+00   0.502959738147E+00
 KINETIC ENERGY [hartree]     =          0.211416795282E-01   0.936728253459E-02
 TEMPERATURE [K]              =                      18.019                7.984
 *******************************************************************************

 FOBSH| Put former active state           1 in new active state           1
 RANDOM_NUMBER_HOPPING_PROBA  0.76079277630078090     
 FOBSH| ACTIVE STATE =            1

 ENERGY| Total FORCE_EVAL ( MIXED ) energy (a.u.):             0.482189333392570

 FOBSH| CASE1: no hop and no trivial crossing
 ENTER integrator.F
 STEP NUMBER                  =            6
 CPU TIME [s]                 =    3.0941629956942052E-003   4.9073326663346961E-003

 *******************************************************************************
 ENSEMBLE TYPE                =                                              NVE
 STEP NUMBER                  =                                                6
 TIME [fs]                    =                                         0.600000
 CONSERVED QUANTITY [hartree] =                               0.512312111225E+00

                                              INSTANTANEOUS             AVERAGES
 CPU TIME [s]                 =                        0.00                 0.00
 ENERGY DRIFT PER ATOM [K]    =         -0.275683781228E-01  -0.116160484162E-01
 POTENTIAL ENERGY[hartree]    =          0.482189333393E+00   0.499498004022E+00
 KINETIC ENERGY [hartree]     =          0.301227778329E-01   0.128265317510E-01
 TEMPERATURE [K]              =                      25.673               10.932
 *******************************************************************************

 FOBSH| Put former active state           1 in new active state           1
 RANDOM_NUMBER_HOPPING_PROBA  0.79577819759069601     
 FOBSH| ACTIVE STATE =            1

 ENERGY| Total FORCE_EVAL ( MIXED ) energy (a.u.):             0.471815867938466

 FOBSH| CASE1: no hop and no trivial crossing
 ENTER integrator.F
 STEP NUMBER                  =            7
 CPU TIME [s]                 =    3.1228029984049499E-003   4.6523998566304460E-003

 *******************************************************************************
 ENSEMBLE TYPE                =                                              NVE
 STEP NUMBER                  =                                                7
 TIME [fs]                    =                                         0.700000
 CONSERVED QUANTITY [hartree] =                               0.512304688487E+00

                                              INSTANTANEOUS             AVERAGES
 CPU TIME [s]                 =                        0.00                 0.00
 ENERGY DRIFT PER ATOM [K]    =         -0.370196390997E-01  -0.152451327996E-01
 POTENTIAL ENERGY[hartree]    =          0.471815867938E+00   0.495543413153E+00
 KINETIC ENERGY [hartree]     =          0.404888205482E-01   0.167782872934E-01
 TEMPERATURE [K]              =                      34.508               14.300
 *******************************************************************************

 FOBSH| Put former active state           1 in new active state           1
 RANDOM_NUMBER_HOPPING_PROBA  0.36353458967413632     
 FOBSH| ACTIVE STATE =            1

 ENERGY| Total FORCE_EVAL ( MIXED ) energy (a.u.):             0.460175159075903

 FOBSH| CASE1: no hop and no trivial crossing
 ENTER integrator.F
 STEP NUMBER                  =            8
 CPU TIME [s]                 =    3.0546570051228628E-003   4.4526820001919978E-003

 *******************************************************************************
 ENSEMBLE TYPE                =                                              NVE
 STEP NUMBER                  =                                                8
 TIME [fs]                    =                                         0.800000
 CONSERVED QUANTITY [hartree] =                               0.512296377697E+00

                                              INSTANTANEOUS             AVERAGES
 CPU TIME [s]                 =                        0.00                 0.00
 ENERGY DRIFT PER ATOM [K]    =         -0.476016415629E-01  -0.192896963950E-01
 POTENTIAL ENERGY[hartree]    =          0.460175159076E+00   0.491122381393E+00
 KINETIC ENERGY [hartree]     =          0.521212186213E-01   0.211961537094E-01
 TEMPERATURE [K]              =                      44.423               18.065
 *******************************************************************************

 FOBSH| Put former active state           1 in new active state           1
 RANDOM_NUMBER_HOPPING_PROBA  0.99959115682052468     
 FOBSH| ACTIVE STATE =            1

 ENERGY| Total FORCE_EVAL ( MIXED ) energy (a.u.):             0.447400089876614

 FOBSH| CASE1: no hop and no trivial crossing
 ENTER integrator.F
 STEP NUMBER                  =            9
 CPU TIME [s]                 =    3.0868329922668636E-003   4.3009209993114268E-003

 *******************************************************************************
 ENSEMBLE TYPE                =                                              NVE
 STEP NUMBER                  =                                                9
 TIME [fs]                    =                                         0.900000
 CONSERVED QUANTITY [hartree] =                               0.512287281359E+00

                                              INSTANTANEOUS             AVERAGES
 CPU TIME [s]                 =                        0.00                 0.00
 ENERGY DRIFT PER ATOM [K]    =         -0.591838719611E-01  -0.237223825690E-01
 POTENTIAL ENERGY[hartree]    =          0.447400089877E+00   0.486264349002E+00
 KINETIC ENERGY [hartree]     =          0.648871914820E-01   0.260507134619E-01
 TEMPERATURE [K]              =                      55.303               22.203
 *******************************************************************************

 FOBSH| Put former active state           1 in new active state           1
 RANDOM_NUMBER_HOPPING_PROBA  0.31180896676524200     
 FOBSH| ACTIVE STATE =            1

 ENERGY| Total FORCE_EVAL ( MIXED ) energy (a.u.):             0.433636108341276

 FOBSH| CASE1: no hop and no trivial crossing
 ENTER integrator.F
 STEP NUMBER                  =           10
 CPU TIME [s]                 =    3.0899870034772903E-003   4.1798275997280135E-003

 *******************************************************************************
 ENSEMBLE TYPE                =                                              NVE
 STEP NUMBER                  =                                               10
 TIME [fs]                    =                                         1.000000
 CONSERVED QUANTITY [hartree] =                               0.512277511562E+00

                                              INSTANTANEOUS             AVERAGES
 CPU TIME [s]                 =                        0.00                 0.00
 ENERGY DRIFT PER ATOM [K]    =         -0.716236066840E-01  -0.285125049805E-01
 POTENTIAL ENERGY[hartree]    =          0.433636108341E+00   0.481001524936E+00
 KINETIC ENERGY [hartree]     =          0.786414032203E-01   0.313097824378E-01
 TEMPERATURE [K]              =                      67.026               26.685
 *******************************************************************************

 FOBSH| Put former active state           1 in new active state           1
 RANDOM_NUMBER_HOPPING_PROBA  0.39309630234819626     
 FOBSH| ACTIVE STATE =            1

 ENERGY| Total FORCE_EVAL ( MIXED ) energy (a.u.):             0.419039436719520

 FOBSH| CASE1: no hop and no trivial crossing
 ENTER integrator.F
 STEP NUMBER                  =           11
 CPU TIME [s]                 =    3.0387410079129040E-003   4.0760924550175496E-003

 *******************************************************************************
 ENSEMBLE TYPE                =                                              NVE
 STEP NUMBER                  =                                               11
 TIME [fs]                    =                                         1.100000
 CONSERVED QUANTITY [hartree] =                               0.512267188572E+00

                                              INSTANTANEOUS             AVERAGES
 CPU TIME [s]                 =                        0.00                 0.00
 ENERGY DRIFT PER ATOM [K]    =         -0.847677134799E-01  -0.336266148441E-01
 POTENTIAL ENERGY[hartree]    =          0.419039436720E+00   0.475368607826E+00
 KINETIC ENERGY [hartree]     =          0.932277518522E-01   0.369386887482E-01
 TEMPERATURE [K]              =                      79.457               31.483
 *******************************************************************************

 FOBSH| Put former active state           1 in new active state           1
 RANDOM_NUMBER_HOPPING_PROBA  0.61606701303784250     
 FOBSH| ACTIVE STATE =            1

 ENERGY| Total FORCE_EVAL ( MIXED ) energy (a.u.):             0.403775150220015

 FOBSH| CASE1: no hop and no trivial crossing
 ENTER integrator.F
 STEP NUMBER                  =           12
 CPU TIME [s]                 =    3.0635549919679761E-003   3.9917143330967519E-003

 *******************************************************************************
 ENSEMBLE TYPE                =                                              NVE
 STEP NUMBER                  =                                               12
 TIME [fs]                    =                                         1.200000
 CONSERVED QUANTITY [hartree] =                               0.512256439312E+00

                                              INSTANTANEOUS             AVERAGES
 CPU TIME [s]                 =                        0.00                 0.00
 ENERGY DRIFT PER ATOM [K]    =         -0.984545828255E-01  -0.390289455092E-01
 POTENTIAL ENERGY[hartree]    =          0.403775150220E+00   0.469402486358E+00
 KINETIC ENERGY [hartree]     =          0.108481289092E+00   0.429005721102E-01
 TEMPERATURE [K]              =                      92.458               36.564
 *******************************************************************************

 FOBSH| Put former active state           1 in new active state           1
 RANDOM_NUMBER_HOPPING_PROBA  0.70730456130563957     
 FOBSH| ACTIVE STATE =            1

 ENERGY| Total FORCE_EVAL ( MIXED ) energy (a.u.):             0.388015149338907

 FOBSH| CASE1: no hop and no trivial crossing
 ENTER integrator.F
 STEP NUMBER                  =           13
 CPU TIME [s]                 =    3.0272510048234835E-003   3.9175248463065009E-003

 *******************************************************************************
 ENSEMBLE TYPE                =                                              NVE
 STEP NUMBER                  =                                               13
 TIME [fs]                    =                                         1.300000
 CONSERVED QUANTITY [hartree] =                               0.512245395765E+00

                                              INSTANTANEOUS             AVERAGES
 CPU TIME [s]                 =                        0.00                 0.00
 ENERGY DRIFT PER ATOM [K]    =         -0.112516164566E+00  -0.446818085136E-01
 POTENTIAL ENERGY[hartree]    =          0.388015149339E+00   0.463141921972E+00
 KINETIC ENERGY [hartree]     =          0.124230246426E+00   0.491567009037E-01
 TEMPERATURE [K]              =                     105.881               41.896
 *******************************************************************************

 FOBSH| Put former active state           1 in new active state           1
 RANDOM_NUMBER_HOPPING_PROBA  0.94912172072038947     
 FOBSH| ACTIVE STATE =            1

 ENERGY| Total FORCE_EVAL ( MIXED ) energy (a.u.):             0.371936049782276

 FOBSH| CASE1: no hop and no trivial crossing
 ENTER integrator.F
 STEP NUMBER                  =           14
 CPU TIME [s]                 =    3.1737509998492897E-003   3.8643981429881285E-003

 *******************************************************************************
 ENSEMBLE TYPE                =                                              NVE
 STEP NUMBER                  =                                               14
 TIME [fs]                    =                                         1.400000
 CONSERVED QUANTITY [hartree] =                               0.512234195104E+00

                                              INSTANTANEOUS             AVERAGES
 CPU TIME [s]                 =                        0.00                 0.00
 ENERGY DRIFT PER ATOM [K]    =         -0.126777796558E+00  -0.505458076596E-01
 POTENTIAL ENERGY[hartree]    =          0.371936049782E+00   0.456627216816E+00
 KINETIC ENERGY [hartree]     =          0.140298145322E+00   0.556668040764E-01
 TEMPERATURE [K]              =                     119.575               47.444
 *******************************************************************************

 FOBSH| Put former active state           1 in new active state           1
 RANDOM_NUMBER_HOPPING_PROBA  0.32809458864938340     
 FOBSH| ACTIVE STATE =            1

 ENERGY| Total FORCE_EVAL ( MIXED ) energy (a.u.):             0.355717018736408

 FOBSH| CASE1: no hop and no trivial crossing
 ENTER integrator.F
 STEP NUMBER                  =           15
 CPU TIME [s]                 =    3.1377510022139177E-003   3.8159550002698477E-003

 *******************************************************************************
 ENSEMBLE TYPE                =                                              NVE
 STEP NUMBER                  =                                               15
 TIME [fs]                    =                                         1.500000
 CONSERVED QUANTITY [hartree] =                               0.512222970733E+00

                                              INSTANTANEOUS             AVERAGES
 CPU TIME [s]                 =                        0.00                 0.00
 ENERGY DRIFT PER ATOM [K]    =         -0.141069618814E+00  -0.565807284032E-01
 POTENTIAL ENERGY[hartree]    =          0.355717018736E+00   0.449899870277E+00
 KINETIC ENERGY [hartree]     =          0.156505951996E+00   0.623894139378E-01
 TEMPERATURE [K]              =                     133.389               53.174
 *******************************************************************************

 FOBSH| Put former active state           1 in new active state           1
 RANDOM_NUMBER_HOPPING_PROBA   1.7491700276330503E-002
 FOBSH| ACTIVE STATE =            1

 ENERGY| Total FORCE_EVAL ( MIXED ) energy (a.u.):             0.339537597665335

 FOBSH| CASE1: no hop and no trivial crossing
 ENTER integrator.F
 STEP NUMBER                  =           16
 CPU TIME [s]                 =    3.0870649934513494E-003   3.7703993748436915E-003

 *******************************************************************************
 ENSEMBLE TYPE                =                                              NVE
 STEP NUMBER                  =                                               16
 TIME [fs]                    =                                         1.600000
 CONSERVED QUANTITY [hartree] =                               0.512211861359E+00

                                              INSTANTANEOUS             AVERAGES
 CPU TIME [s]                 =                        0.00                 0.00
 ENERGY DRIFT PER ATOM [K]    =         -0.155215016407E+00  -0.627453714034E-01
 POTENTIAL ENERGY[hartree]    =          0.339537597665E+00   0.443002228239E+00
 KINETIC ENERGY [hartree]     =          0.172674263694E+00   0.692822170475E-01
 TEMPERATURE [K]              =                     147.169               59.049
 *******************************************************************************

 FOBSH| Put former active state           1 in new active state           1
 RANDOM_NUMBER_HOPPING_PROBA  0.62251321121182945     
 FOBSH| ACTIVE STATE =            1

 ENERGY| Total FORCE_EVAL ( MIXED ) energy (a.u.):             0.323575500079932

 FOBSH| CASE1: no hop and no trivial crossing
 ENTER integrator.F
 STEP NUMBER                  =           17
 CPU TIME [s]                 =    2.9792669956805184E-003   3.7238621760693870E-003

 *******************************************************************************
 ENSEMBLE TYPE                =                                              NVE
 STEP NUMBER                  =                                               17
 TIME [fs]                    =                                         1.700000
 CONSERVED QUANTITY [hartree] =                               0.512201002350E+00

                                              INSTANTANEOUS             AVERAGES
 CPU TIME [s]                 =                        0.00                 0.00
 ENERGY DRIFT PER ATOM [K]    =         -0.169041628601E+00  -0.689980924151E-01
 POTENTIAL ENERGY[hartree]    =          0.323575500080E+00   0.435977126583E+00
 KINETIC ENERGY [hartree]     =          0.188625502270E+00   0.763024102959E-01
 TEMPERATURE [K]              =                     160.764               65.032
 *******************************************************************************

 FOBSH| Put former active state           1 in new active state           1
 RANDOM_NUMBER_HOPPING_PROBA  0.28033938638646910     
 FOBSH| ACTIVE STATE =            1

 ENERGY| Total FORCE_EVAL ( MIXED ) energy (a.u.):             0.308004454330609

 FOBSH| CASE1: no hop and no trivial crossing
 ENTER integrator.F
 STEP NUMBER                  =           18
 CPU TIME [s]                 =    3.1201340025290847E-003   3.6903217219838146E-003

 *******************************************************************************
 ENSEMBLE TYPE                =                                              NVE
 STEP NUMBER                  =                                               18
 TIME [fs]                    =                                         1.800000
 CONSERVED QUANTITY [hartree] =                               0.512190526414E+00

                                              INSTANTANEOUS             AVERAGES
 CPU TIME [s]                 =                        0.00                 0.00
 ENERGY DRIFT PER ATOM [K]    =         -0.182380478984E+00  -0.752971138911E-01
 POTENTIAL ENERGY[hartree]    =          0.308004454331E+00   0.428867533680E+00
 KINETIC ENERGY [hartree]     =          0.204186072083E+00   0.834070581730E-01
 TEMPERATURE [K]              =                     174.026               71.087
 *******************************************************************************

 FOBSH| Put former active state           1 in new active state           1
 RANDOM_NUMBER_HOPPING_PROBA   2.4476788726442510E-002
 FOBSH| ACTIVE STATE =            1

 ENERGY| Total FORCE_EVAL ( MIXED ) energy (a.u.):             0.292992093573278

 FOBSH| CASE1: no hop and no trivial crossing
 ENTER integrator.F
 STEP NUMBER                  =           19
 CPU TIME [s]                 =    3.0440609989454970E-003   3.6563079997186400E-003

 *******************************************************************************
 ENSEMBLE TYPE                =                                              NVE
 STEP NUMBER                  =                                               19
 TIME [fs]                    =                                         1.900000
 CONSERVED QUANTITY [hartree] =                               0.512180559045E+00

                                              INSTANTANEOUS             AVERAGES
 CPU TIME [s]                 =                        0.00                 0.00
 ENERGY DRIFT PER ATOM [K]    =         -0.195071779321E+00  -0.816010436506E-01
 POTENTIAL ENERGY[hartree]    =          0.292992093573E+00   0.421716194727E+00
 KINETIC ENERGY [hartree]     =          0.219188465472E+00   0.905534480308E-01
 TEMPERATURE [K]              =                     186.813               77.178
 *******************************************************************************

 FOBSH| Put former active state           1 in new active state           1
 RANDOM_NUMBER_HOPPING_PROBA  0.69400398301725019     
 FOBSH| ACTIVE STATE =            1

 ENERGY| Total FORCE_EVAL ( MIXED ) energy (a.u.):             0.278697937178374

 FOBSH| CASE1: no hop and no trivial crossing
 ENTER integrator.F
 STEP NUMBER                  =           20
 CPU TIME [s]                 =    3.0223500070860609E-003   3.6246101000870115E-003

 *******************************************************************************
 ENSEMBLE TYPE                =                                              NVE
 STEP NUMBER                  =                                               20
 TIME [fs]                    =                                         2.000000
 CONSERVED QUANTITY [hartree] =                               0.512171220451E+00

                                              INSTANTANEOUS             AVERAGES
 CPU TIME [s]                 =                        0.00                 0.00
 ENERGY DRIFT PER ATOM [K]    =         -0.206962469364E+00  -0.878691149362E-01
 POTENTIAL ENERGY[hartree]    =          0.278697937178E+00   0.414565281849E+00
 KINETIC ENERGY [hartree]     =          0.233473283273E+00   0.976994397929E-01
 TEMPERATURE [K]              =                     198.988               83.269
 *******************************************************************************

 FOBSH| Put former active state           1 in new active state           1
 RANDOM_NUMBER_HOPPING_PROBA  0.13711736898878887     
 FOBSH| ACTIVE STATE =            1

 ENERGY| Total FORCE_EVAL ( MIXED ) energy (a.u.):             0.265271469420298

 FOBSH| CASE1: no hop and no trivial crossing
 ENTER integrator.F
 STEP NUMBER                  =           21
 CPU TIME [s]                 =    3.0791110038990155E-003   3.5986339526494875E-003

 *******************************************************************************
 ENSEMBLE TYPE                =                                              NVE
 STEP NUMBER                  =                                               21
 TIME [fs]                    =                                         2.100000
 CONSERVED QUANTITY [hartree] =                               0.512162622709E+00

                                              INSTANTANEOUS             AVERAGES
 CPU TIME [s]                 =                        0.00                 0.00
 ENERGY DRIFT PER ATOM [K]    =         -0.217909844375E+00  -0.940615306238E-01
 POTENTIAL ENERGY[hartree]    =          0.265271469420E+00   0.407456052686E+00
 KINETIC ENERGY [hartree]     =          0.246891153289E+00   0.104803807102E+00
 TEMPERATURE [K]              =                     210.424               89.324
 *******************************************************************************

 FOBSH| Put former active state           1 in new active state           1
 RANDOM_NUMBER_HOPPING_PROBA  0.69442558648076891     
 FOBSH| ACTIVE STATE =            1

 ENERGY| Total FORCE_EVAL ( MIXED ) energy (a.u.):             0.252850350573156

 FOBSH| CASE1: no hop and no trivial crossing
 ENTER integrator.F
 STEP NUMBER                  =           22
 CPU TIME [s]                 =    3.0703689990332350E-003   3.5746219093032946E-003

 *******************************************************************************
 ENSEMBLE TYPE                =                                              NVE
 STEP NUMBER                  =                                               22
 TIME [fs]                    =                                         2.200000
 CONSERVED QUANTITY [hartree] =                               0.512154868064E+00

                                              INSTANTANEOUS             AVERAGES
 CPU TIME [s]                 =                        0.00                 0.00
 ENERGY DRIFT PER ATOM [K]    =         -0.227783716382E+00  -0.100139811795E+00
 POTENTIAL ENERGY[hartree]    =          0.252850350573E+00   0.400428520772E+00
 KINETIC ENERGY [hartree]     =          0.259304517491E+00   0.111826566665E+00
 TEMPERATURE [K]              =                     221.003               95.309
 *******************************************************************************

 FOBSH| Put former active state           1 in new active state           1
 RANDOM_NUMBER_HOPPING_PROBA  0.43357591614681079     
 FOBSH| ACTIVE STATE =            1

 ENERGY| Total FORCE_EVAL ( MIXED ) energy (a.u.):             0.241558784360201

 FOBSH| CASE1: no hop and no trivial crossing
 ENTER integrator.F
 STEP NUMBER                  =           23
 CPU TIME [s]                 =    3.0516059923684224E-003   3.5518820868278649E-003

 *******************************************************************************
 ENSEMBLE TYPE                =                                              NVE
 STEP NUMBER                  =                                               23
 TIME [fs]                    =                                         2.300000
 CONSERVED QUANTITY [hartree] =                               0.512148048186E+00

                                              INSTANTANEOUS             AVERAGES
 CPU TIME [s]                 =                        0.00                 0.00
 ENERGY DRIFT PER ATOM [K]    =         -0.236467364191E+00  -0.106067096681E+00
 POTENTIAL ENERGY[hartree]    =          0.241558784360E+00   0.393521140928E+00
 KINETIC ENERGY [hartree]     =          0.270589263826E+00   0.118729292629E+00
 TEMPERATURE [K]              =                     230.621              101.192
 *******************************************************************************

 FOBSH| Put former active state           1 in new active state           1
 RANDOM_NUMBER_HOPPING_PROBA  0.42556539446059666     
 FOBSH| ACTIVE STATE =            1

 ENERGY| Total FORCE_EVAL ( MIXED ) energy (a.u.):             0.231506053790216

 FOBSH| CASE1: no hop and no trivial crossing
 ENTER integrator.F
 STEP NUMBER                  =           24
 CPU TIME [s]                 =    3.5889950086129829E-003   3.5534284585689115E-003

 *******************************************************************************
 ENSEMBLE TYPE                =                                              NVE
 STEP NUMBER                  =                                               24
 TIME [fs]                    =                                         2.400000
 CONSERVED QUANTITY [hartree] =                               0.512142242368E+00

                                              INSTANTANEOUS             AVERAGES
 CPU TIME [s]                 =                        0.00                 0.00
 ENERGY DRIFT PER ATOM [K]    =         -0.243859823682E+00  -0.111808460306E+00
 POTENTIAL ENERGY[hartree]    =          0.231506053790E+00   0.386770512297E+00
 KINETIC ENERGY [hartree]     =          0.280636188578E+00   0.125475413293E+00
 TEMPERATURE [K]              =                     239.184              106.942
 *******************************************************************************

 FOBSH| Put former active state           1 in new active state           1
 RANDOM_NUMBER_HOPPING_PROBA  0.22755703896560339     
 FOBSH| ACTIVE STATE =            1

 ENERGY| Total FORCE_EVAL ( MIXED ) energy (a.u.):             0.222785251976371

 FOBSH| CASE1: no hop and no trivial crossing
 ENTER integrator.F
 STEP NUMBER                  =           25
 CPU TIME [s]                 =    3.1923239876050502E-003   3.5389842797303572E-003

 *******************************************************************************
 ENSEMBLE TYPE                =                                              NVE
 STEP NUMBER                  =                                               25
 TIME [fs]                    =                                         2.500000
 CONSERVED QUANTITY [hartree] =                               0.512137517510E+00

                                              INSTANTANEOUS             AVERAGES
 CPU TIME [s]                 =                        0.00                 0.00
 ENERGY DRIFT PER ATOM [K]    =         -0.249875914344E+00  -0.117331158468E+00
 POTENTIAL ENERGY[hartree]    =          0.222785251976E+00   0.380211101884E+00
 KINETIC ENERGY [hartree]     =          0.289352265534E+00   0.132030487383E+00
 TEMPERATURE [K]              =                     246.613              112.529
 *******************************************************************************

 FOBSH| Put former active state           1 in new active state           1
 RANDOM_NUMBER_HOPPING_PROBA  0.57608685498732748     
 FOBSH| ACTIVE STATE =            1

 ENERGY| Total FORCE_EVAL ( MIXED ) energy (a.u.):             0.215472217789613

 FOBSH| CASE1: no hop and no trivial crossing
 ENTER integrator.F
 STEP NUMBER                  =           26
 CPU TIME [s]                 =    3.1492749985773116E-003   3.5239954612244712E-003

 *******************************************************************************
 ENSEMBLE TYPE                =                                              NVE
 STEP NUMBER                  =                                               26
 TIME [fs]                    =                                         2.600000
 CONSERVED QUANTITY [hartree] =                               0.512133926167E+00

                                              INSTANTANEOUS             AVERAGES
 CPU TIME [s]                 =                        0.00                 0.00
 ENERGY DRIFT PER ATOM [K]    =         -0.254448716824E+00  -0.122604910712E+00
 POTENTIAL ENERGY[hartree]    =          0.215472217790E+00   0.373874990958E+00
 KINETIC ENERGY [hartree]     =          0.296661708378E+00   0.138362457421E+00
 TEMPERATURE [K]              =                     252.843              117.925
 *******************************************************************************

 FOBSH| Put former active state           1 in new active state           1
 RANDOM_NUMBER_HOPPING_PROBA  0.53284480325684869     
 FOBSH| ACTIVE STATE =            1

 ENERGY| Total FORCE_EVAL ( MIXED ) energy (a.u.):             0.209624692811667

 FOBSH| CASE1: no hop and no trivial crossing
 ENTER integrator.F
 STEP NUMBER                  =           27
 CPU TIME [s]                 =    3.1510190019616857E-003   3.5101815182888123E-003

 *******************************************************************************
 ENSEMBLE TYPE                =                                              NVE
 STEP NUMBER                  =                                               27
 TIME [fs]                    =                                         2.700000
 CONSERVED QUANTITY [hartree] =                               0.512131506636E+00

                                              INSTANTANEOUS             AVERAGES
 CPU TIME [s]                 =                        0.00                 0.00
 ENERGY DRIFT PER ATOM [K]    =         -0.257529468943E+00  -0.127602116573E+00
 POTENTIAL ENERGY[hartree]    =          0.209624692812E+00   0.367791646582E+00
 KINETIC ENERGY [hartree]     =          0.302506813825E+00   0.144441878029E+00
 TEMPERATURE [K]              =                     257.825              123.107
 *******************************************************************************

 FOBSH| Put former active state           1 in new active state           1
 RANDOM_NUMBER_HOPPING_PROBA  0.33057430637056379     
 FOBSH| ACTIVE STATE =            1

 ENERGY| Total FORCE_EVAL ( MIXED ) energy (a.u.):             0.205281709472670

 FOBSH| CASE1: no hop and no trivial crossing
 ENTER integrator.F
 STEP NUMBER                  =           28
 CPU TIME [s]                 =    3.0822580010863021E-003   3.4948985355315793E-003

 *******************************************************************************
 ENSEMBLE TYPE                =                                              NVE
 STEP NUMBER                  =                                               28
 TIME [fs]                    =                                         2.800000
 CONSERVED QUANTITY [hartree] =                               0.512130282116E+00

                                              INSTANTANEOUS             AVERAGES
 CPU TIME [s]                 =                        0.00                 0.00
 ENERGY DRIFT PER ATOM [K]    =         -0.259088632012E+00  -0.132298063553E+00
 POTENTIAL ENERGY[hartree]    =          0.205281709473E+00   0.361987720256E+00
 KINETIC ENERGY [hartree]     =          0.306848572644E+00   0.150242117122E+00
 TEMPERATURE [K]              =                     261.525              128.050
 *******************************************************************************

 FOBSH| Put former active state           1 in new active state           1
 RANDOM_NUMBER_HOPPING_PROBA  0.11746379161078220     
 FOBSH| ACTIVE STATE =            1

 ENERGY| Total FORCE_EVAL ( MIXED ) energy (a.u.):             0.202463218455406

 FOBSH| CASE1: no hop and no trivial crossing
 ENTER integrator.F
 STEP NUMBER                  =           29
 CPU TIME [s]                 =    3.0549390066880733E-003   3.4797275172955963E-003

 *******************************************************************************
 ENSEMBLE TYPE                =                                              NVE
 STEP NUMBER                  =                                               29
 TIME [fs]                    =                                         2.900000
 CONSERVED QUANTITY [hartree] =                               0.512130260761E+00

                                              INSTANTANEOUS             AVERAGES
 CPU TIME [s]                 =                        0.00                 0.00
 ENERGY DRIFT PER ATOM [K]    =         -0.259115823686E+00  -0.136671089764E+00
 POTENTIAL ENERGY[hartree]    =          0.202463218455E+00   0.356486875367E+00
 KINETIC ENERGY [hartree]     =          0.309667042305E+00   0.155739528335E+00
 TEMPERATURE [K]              =                     263.927              132.736
 *******************************************************************************

 FOBSH| Put former active state           1 in new active state           1
 RANDOM_NUMBER_HOPPING_PROBA  0.77128416612444139     
 FOBSH| ACTIVE STATE =            1

 ENERGY| Total FORCE_EVAL ( MIXED ) energy (a.u.):             0.201169955603009

 FOBSH| CASE1: no hop and no trivial crossing
 ENTER integrator.F
 STEP NUMBER                  =           30
 CPU TIME [s]                 =    3.0830039904685691E-003   3.4665033997346951E-003

 *******************************************************************************
 ENSEMBLE TYPE                =                                              NVE
 STEP NUMBER                  =                                               30
 TIME [fs]                    =                                         3.000000
 CONSERVED QUANTITY [hartree] =                               0.512131435613E+00

                                              INSTANTANEOUS             AVERAGES
 CPU TIME [s]                 =                        0.00                 0.00
 ENERGY DRIFT PER ATOM [K]    =         -0.257619901690E+00  -0.140702716828E+00
 POTENTIAL ENERGY[hartree]    =          0.201169955603E+00   0.351309644708E+00
 KINETIC ENERGY [hartree]     =          0.310961480010E+00   0.160913593391E+00
 TEMPERATURE [K]              =                     265.030              137.146
 *******************************************************************************

 FOBSH| Reordering: for state           5 old index was           6 with overlap  0.99997418942458549      and former  -3.6311166680215223E-012
 FOBSH| Reordering: for state           6 old index was           5 with overlap -0.99999999996383271      and former   6.9502227803433220E-012
 FOBSH| New map:            1           2           3           4           6           5           7           8           9
 FOBSH| Put former active state           1 in new active state           1
 RANDOM_NUMBER_HOPPING_PROBA  0.11123223070434854     
 FOBSH| ACTIVE STATE =            1

 ENERGY| Total FORCE_EVAL ( MIXED ) energy (a.u.):             0.201383551933592

 FOBSH| CASE1: no hop and no trivial crossing
 ENTER integrator.F
 STEP NUMBER                  =           31
 CPU TIME [s]                 =    3.0524150060955435E-003   3.4531457096173032E-003

 *******************************************************************************
 ENSEMBLE TYPE                =                                              NVE
 STEP NUMBER                  =                                               31
 TIME [fs]                    =                                         3.100000
 CONSERVED QUANTITY [hartree] =                               0.512133784835E+00

                                              INSTANTANEOUS             AVERAGES
 CPU TIME [s]                 =                        0.00                 0.00
 ENERGY DRIFT PER ATOM [K]    =         -0.254628672706E+00  -0.144377747663E+00
 POTENTIAL ENERGY[hartree]    =          0.201383551934E+00   0.346473319135E+00
 KINETIC ENERGY [hartree]     =          0.310750232902E+00   0.165747033375E+00
 TEMPERATURE [K]              =                     264.850              141.265
 *******************************************************************************

 FOBSH| Put former active state           1 in new active state           1
 RANDOM_NUMBER_HOPPING_PROBA  0.52006523385028558     
 FOBSH| ACTIVE STATE =            1

 ENERGY| Total FORCE_EVAL ( MIXED ) energy (a.u.):             0.203066884136746

 FOBSH| CASE1: no hop and no trivial crossing
 ENTER integrator.F
 STEP NUMBER                  =           32
 CPU TIME [s]                 =    3.1183190003503114E-003   3.4426823749527098E-003

 *******************************************************************************
 ENSEMBLE TYPE                =                                              NVE
 STEP NUMBER                  =                                               32
 TIME [fs]                    =                                         3.200000
 CONSERVED QUANTITY [hartree] =                               0.512137271505E+00

                                              INSTANTANEOUS             AVERAGES
 CPU TIME [s]                 =                        0.00                 0.00
 ENERGY DRIFT PER ATOM [K]    =         -0.250189149274E+00  -0.147684353964E+00
 POTENTIAL ENERGY[hartree]    =          0.203066884137E+00   0.341991868041E+00
 KINETIC ENERGY [hartree]     =          0.309070387368E+00   0.170225888188E+00
 TEMPERATURE [K]              =                     263.419              145.082
 *******************************************************************************

 FOBSH| Put former active state           1 in new active state           1
 RANDOM_NUMBER_HOPPING_PROBA  0.73289104701050978     
 FOBSH| ACTIVE STATE =            1

 ENERGY| Total FORCE_EVAL ( MIXED ) energy (a.u.):             0.206164660258849

 FOBSH| CASE1: no hop and no trivial crossing
 ENTER integrator.F
 STEP NUMBER                  =           33
 CPU TIME [s]                 =    3.0574139964301139E-003   3.4310075756035403E-003

 *******************************************************************************
 ENSEMBLE TYPE                =                                              NVE
 STEP NUMBER                  =                                               33
 TIME [fs]                    =                                         3.300000
 CONSERVED QUANTITY [hartree] =                               0.512141844222E+00

                                              INSTANTANEOUS             AVERAGES
 CPU TIME [s]                 =                        0.00                 0.00
 ENERGY DRIFT PER ATOM [K]    =         -0.244366777990E+00  -0.150614124389E+00
 POTENTIAL ENERGY[hartree]    =          0.206164660259E+00   0.337875892048E+00
 KINETIC ENERGY [hartree]     =          0.305977183963E+00   0.174339563817E+00
 TEMPERATURE [K]              =                     260.782              148.588
 *******************************************************************************

 FOBSH| Put former active state           1 in new active state           1
 RANDOM_NUMBER_HOPPING_PROBA  0.14878337503106848     
 FOBSH| ACTIVE STATE =            1

 ENERGY| Total FORCE_EVAL ( MIXED ) energy (a.u.):             0.210604239898932

 FOBSH| CASE1: no hop and no trivial crossing
 ENTER integrator.F
 STEP NUMBER                  =           34
 CPU TIME [s]                 =    3.0712820007465780E-003   3.4204274116371590E-003

 *******************************************************************************
 ENSEMBLE TYPE                =                                              NVE
 STEP NUMBER                  =                                               34
 TIME [fs]                    =                                         3.400000
 CONSERVED QUANTITY [hartree] =                               0.512147438697E+00

                                              INSTANTANEOUS             AVERAGES
 CPU TIME [s]                 =                        0.00                 0.00
 ENERGY DRIFT PER ATOM [K]    =         -0.237243417585E+00  -0.153162044777E+00
 POTENTIAL ENERGY[hartree]    =          0.210604239899E+00   0.334132608161E+00
 KINETIC ENERGY [hartree]     =          0.301543198798E+00   0.178080847199E+00
 TEMPERATURE [K]              =                     257.003              151.777
 *******************************************************************************

 FOBSH| Put former active state           1 in new active state           1
 RANDOM_NUMBER_HOPPING_PROBA  0.70792872161818077     
 FOBSH| ACTIVE STATE =            1

 ENERGY| Total FORCE_EVAL ( MIXED ) energy (a.u.):             0.216296667804614

 FOBSH| CASE1: no hop and no trivial crossing
 ENTER integrator.F
 STEP NUMBER                  =           35
 CPU TIME [s]                 =    3.1240600073942915E-003   3.4119597715159340E-003

 *******************************************************************************
 ENSEMBLE TYPE                =                                              NVE
 STEP NUMBER                  =                                               35
 TIME [fs]                    =                                         3.500000
 CONSERVED QUANTITY [hartree] =                               0.512153976596E+00

                                              INSTANTANEOUS             AVERAGES
 CPU TIME [s]                 =                        0.00                 0.00
 ENERGY DRIFT PER ATOM [K]    =         -0.228918809318E+00  -0.155326523764E+00
 POTENTIAL ENERGY[hartree]    =          0.216296667805E+00   0.330765867008E+00
 KINETIC ENERGY [hartree]     =          0.295857308791E+00   0.181445888959E+00
 TEMPERATURE [K]              =                     252.157              154.645
 *******************************************************************************

 FOBSH| Put former active state           1 in new active state           1
 RANDOM_NUMBER_HOPPING_PROBA  0.57368060162420509     
 FOBSH| ACTIVE STATE =            1

 ENERGY| Total FORCE_EVAL ( MIXED ) energy (a.u.):             0.223137911798363

 FOBSH| CASE1: no hop and no trivial crossing
 ENTER integrator.F
 STEP NUMBER                  =           36
 CPU TIME [s]                 =    3.1301150011131540E-003   3.4041307501158566E-003

 *******************************************************************************
 ENSEMBLE TYPE                =                                              NVE
 STEP NUMBER                  =                                               36
 TIME [fs]                    =                                         3.600000
 CONSERVED QUANTITY [hartree] =                               0.512161368665E+00

                                              INSTANTANEOUS             AVERAGES
 CPU TIME [s]                 =                        0.00                 0.00
 ENERGY DRIFT PER ATOM [K]    =         -0.219506599965E+00  -0.157109303658E+00
 POTENTIAL ENERGY[hartree]    =          0.223137911798E+00   0.327776201585E+00
 KINETIC ENERGY [hartree]     =          0.289023456866E+00   0.184434154734E+00
 TEMPERATURE [K]              =                     246.333              157.192
 *******************************************************************************

 FOBSH| Put former active state           1 in new active state           1
 RANDOM_NUMBER_HOPPING_PROBA  0.98690830503518878     
 FOBSH| ACTIVE STATE =            1

 ENERGY| Total FORCE_EVAL ( MIXED ) energy (a.u.):             0.231010290061234

 FOBSH| CASE1: no hop and no trivial crossing
 ENTER integrator.F
 STEP NUMBER                  =           37
 CPU TIME [s]                 =    3.1233100016834214E-003   3.3965410001582236E-003

 *******************************************************************************
 ENSEMBLE TYPE                =                                              NVE
 STEP NUMBER                  =                                               37
 TIME [fs]                    =                                         3.700000
 CONSERVED QUANTITY [hartree] =                               0.512169514938E+00

                                              INSTANTANEOUS             AVERAGES
 CPU TIME [s]                 =                        0.00                 0.00
 ENERGY DRIFT PER ATOM [K]    =         -0.209134073537E+00  -0.158515378520E+00
 POTENTIAL ENERGY[hartree]    =          0.231010290061E+00   0.325160906679E+00
 KINETIC ENERGY [hartree]     =          0.281159224877E+00   0.187048345819E+00
 TEMPERATURE [K]              =                     239.630              159.420
 *******************************************************************************

 FOBSH| Put former active state           1 in new active state           1
 RANDOM_NUMBER_HOPPING_PROBA   3.4208860275205914E-002
 FOBSH| ACTIVE STATE =            1

 ENERGY| Total FORCE_EVAL ( MIXED ) energy (a.u.):             0.239784067851052

 FOBSH| CASE1: no hop and no trivial crossing
 ENTER integrator.F
 STEP NUMBER                  =           38
 CPU TIME [s]                 =    3.0672699940623716E-003   3.3878759736820172E-003

 *******************************************************************************
 ENSEMBLE TYPE                =                                              NVE
 STEP NUMBER                  =                                               38
 TIME [fs]                    =                                         3.800000
 CONSERVED QUANTITY [hartree] =                               0.512178305968E+00

                                              INSTANTANEOUS             AVERAGES
 CPU TIME [s]                 =                        0.00                 0.00
 ENERGY DRIFT PER ATOM [K]    =         -0.197940587939E+00  -0.159552884031E+00
 POTENTIAL ENERGY[hartree]    =          0.239784067851E+00   0.322914147763E+00
 KINETIC ENERGY [hartree]     =          0.272394238117E+00   0.189294290353E+00
 TEMPERATURE [K]              =                     232.160              161.334
 *******************************************************************************

 FOBSH| Put former active state           1 in new active state           1
 RANDOM_NUMBER_HOPPING_PROBA  0.80751924681570464     
 FOBSH| ACTIVE STATE =            1

 ENERGY| Total FORCE_EVAL ( MIXED ) energy (a.u.):             0.249319202589928

 FOBSH| CASE1: no hop and no trivial crossing
 ENTER integrator.F
 STEP NUMBER                  =           39
 CPU TIME [s]                 =    3.0824550049146637E-003   3.3800446667905464E-003

 *******************************************************************************
 ENSEMBLE TYPE                =                                              NVE
 STEP NUMBER                  =                                               39
 TIME [fs]                    =                                         3.900000
 CONSERVED QUANTITY [hartree] =                               0.512187624437E+00

                                              INSTANTANEOUS             AVERAGES
 CPU TIME [s]                 =                        0.00                 0.00
 ENERGY DRIFT PER ATOM [K]    =         -0.186075522325E+00  -0.160232951679E+00
 POTENTIAL ENERGY[hartree]    =          0.249319202590E+00   0.321027097886E+00
 KINETIC ENERGY [hartree]     =          0.262868421847E+00   0.191180806545E+00
 TEMPERATURE [K]              =                     224.041              162.942
 *******************************************************************************

 FOBSH| Put former active state           1 in new active state           1
 RANDOM_NUMBER_HOPPING_PROBA  0.21295495361430347     
 FOBSH| ACTIVE STATE =            1

 ENERGY| Total FORCE_EVAL ( MIXED ) energy (a.u.):             0.259467215958012

 FOBSH| CASE1: no hop and no trivial crossing
 ENTER integrator.F
 STEP NUMBER                  =           40
 CPU TIME [s]                 =    3.0618339951615781E-003   3.3720893999998228E-003

 *******************************************************************************
 ENSEMBLE TYPE                =                                              NVE
 STEP NUMBER                  =                                               40
 TIME [fs]                    =                                         4.000000
 CONSERVED QUANTITY [hartree] =                               0.512197346636E+00

                                              INSTANTANEOUS             AVERAGES
 CPU TIME [s]                 =                        0.00                 0.00
 ENERGY DRIFT PER ATOM [K]    =         -0.173696392962E+00  -0.160569537711E+00
 POTENTIAL ENERGY[hartree]    =          0.259467215958E+00   0.319488100838E+00
 KINETIC ENERGY [hartree]     =          0.252730130678E+00   0.192719539649E+00
 TEMPERATURE [K]              =                     215.400              164.254
 *******************************************************************************

 FOBSH| Put former active state           1 in new active state           1
 RANDOM_NUMBER_HOPPING_PROBA  0.30303557823211896     
 FOBSH| ACTIVE STATE =            1

 ENERGY| Total FORCE_EVAL ( MIXED ) energy (a.u.):             0.270073167770021

 FOBSH| CASE1: no hop and no trivial crossing
 ENTER integrator.F
 STEP NUMBER                  =           41
 CPU TIME [s]                 =    3.0588490044465289E-003   3.3644493903521814E-003

 *******************************************************************************
 ENSEMBLE TYPE                =                                              NVE
 STEP NUMBER                  =                                               41
 TIME [fs]                    =                                         4.100000
 CONSERVED QUANTITY [hartree] =                               0.512207344066E+00

                                              INSTANTANEOUS             AVERAGES
 CPU TIME [s]                 =                        0.00                 0.00
 ENERGY DRIFT PER ATOM [K]    =         -0.160966817218E+00  -0.160579227455E+00
 POTENTIAL ENERGY[hartree]    =          0.270073167770E+00   0.318282858568E+00
 KINETIC ENERGY [hartree]     =          0.242134176296E+00   0.193924774689E+00
 TEMPERATURE [K]              =                     206.369              165.281
 *******************************************************************************

 FOBSH| Put former active state           1 in new active state           1
 RANDOM_NUMBER_HOPPING_PROBA  0.73286587941369585     
 FOBSH| ACTIVE STATE =            1

 ENERGY| Total FORCE_EVAL ( MIXED ) energy (a.u.):             0.280977706346138

 FOBSH| CASE1: no hop and no trivial crossing
 ENTER integrator.F
 STEP NUMBER                  =           42
 CPU TIME [s]                 =    3.0836379883112386E-003   3.3577634045893015E-003

 *******************************************************************************
 ENSEMBLE TYPE                =                                              NVE
 STEP NUMBER                  =                                               42
 TIME [fs]                    =                                         4.200000
 CONSERVED QUANTITY [hartree] =                               0.512217485098E+00

                                              INSTANTANEOUS             AVERAGES
 CPU TIME [s]                 =                        0.00                 0.00
 ENERGY DRIFT PER ATOM [K]    =         -0.148054395116E+00  -0.160281017162E+00
 POTENTIAL ENERGY[hartree]    =          0.280977706346E+00   0.317394640658E+00
 KINETIC ENERGY [hartree]     =          0.231239778751E+00   0.194813227166E+00
 TEMPERATURE [K]              =                     197.084              166.038
 *******************************************************************************

 FOBSH| Put former active state           1 in new active state           1
 RANDOM_NUMBER_HOPPING_PROBA  0.14662496710615075     
 FOBSH| ACTIVE STATE =            1

 ENERGY| Total FORCE_EVAL ( MIXED ) energy (a.u.):             0.292019169176791

 FOBSH| CASE1: no hop and no trivial crossing
 ENTER integrator.F
 STEP NUMBER                  =           43
 CPU TIME [s]                 =    3.1069850083440542E-003   3.3519313488626678E-003

 *******************************************************************************
 ENSEMBLE TYPE                =                                              NVE
 STEP NUMBER                  =                                               43
 TIME [fs]                    =                                         4.300000
 CONSERVED QUANTITY [hartree] =                               0.512227636583E+00

                                              INSTANTANEOUS             AVERAGES
 CPU TIME [s]                 =                        0.00                 0.00
 ENERGY DRIFT PER ATOM [K]    =         -0.135128662660E+00  -0.159696078685E+00
 POTENTIAL ENERGY[hartree]    =          0.292019169177E+00   0.316804513415E+00
 KINETIC ENERGY [hartree]     =          0.220208467406E+00   0.195403814149E+00
 TEMPERATURE [K]              =                     187.682              166.541
 *******************************************************************************

 FOBSH| Put former active state           1 in new active state           1
 RANDOM_NUMBER_HOPPING_PROBA  0.99741585610026928     
 FOBSH| ATTEMPTED_HOP
 FOBSH| ACTIVE STATE =            1

 ENERGY| Total FORCE_EVAL ( MIXED ) energy (a.u.):             0.303035707446825

 FOBSH| Active state before the attempt to hop:           1
 FOBSH| Active state after the attempt to hop:           1
 FOBSH| CASE4: rejected hop and good overlap
 ENTER integrator.F
 STEP NUMBER                  =           44
 CPU TIME [s]                 =    3.1558719929307699E-003   3.3474754544096704E-003

 *******************************************************************************
 ENSEMBLE TYPE                =                                              NVE
 STEP NUMBER                  =                                               44
 TIME [fs]                    =                                         4.400000
 CONSERVED QUANTITY [hartree] =                               0.512237665496E+00

                                              INSTANTANEOUS             AVERAGES
 CPU TIME [s]                 =                        0.00                 0.00
 ENERGY DRIFT PER ATOM [K]    =         -0.122358998958E+00  -0.158847508691E+00
 POTENTIAL ENERGY[hartree]    =          0.303035707447E+00   0.316491586006E+00
 KINETIC ENERGY [hartree]     =          0.209201958049E+00   0.195717408328E+00
 TEMPERATURE [K]              =                     178.301              166.809
 *******************************************************************************

 FOBSH| Put former active state           1 in new active state           1
 RANDOM_NUMBER_HOPPING_PROBA   2.6465029340406440E-002
 FOBSH| ACTIVE STATE =            1

 ENERGY| Total FORCE_EVAL ( MIXED ) energy (a.u.):             0.313895908221251

 FOBSH| CASE1: no hop and no trivial crossing
 ENTER integrator.F
 STEP NUMBER                  =           45
 CPU TIME [s]                 =    3.0626740044681355E-003   3.3411465332998584E-003

 *******************************************************************************
 ENSEMBLE TYPE                =                                              NVE
 STEP NUMBER                  =                                               45
 TIME [fs]                    =                                         4.500000
 CONSERVED QUANTITY [hartree] =                               0.512247442524E+00

                                              INSTANTANEOUS             AVERAGES
 CPU TIME [s]                 =                        0.00                 0.00
 ENERGY DRIFT PER ATOM [K]    =         -0.109910056684E+00  -0.157760009758E+00
 POTENTIAL ENERGY[hartree]    =          0.313895908221E+00   0.316433904278E+00
 KINETIC ENERGY [hartree]     =          0.198351534303E+00   0.195775944461E+00
 TEMPERATURE [K]              =                     169.054              166.859
 *******************************************************************************

 FOBSH| Put former active state           1 in new active state           1
 RANDOM_NUMBER_HOPPING_PROBA  0.11181750759902448     
 FOBSH| ACTIVE STATE =            1

 ENERGY| Total FORCE_EVAL ( MIXED ) energy (a.u.):             0.324415415599087

 FOBSH| CASE1: no hop and no trivial crossing
 ENTER integrator.F
 STEP NUMBER                  =           46
 CPU TIME [s]                 =    3.0504479946102947E-003   3.3348269998500850E-003

 *******************************************************************************
 ENSEMBLE TYPE                =                                              NVE
 STEP NUMBER                  =                                               46
 TIME [fs]                    =                                         4.600000
 CONSERVED QUANTITY [hartree] =                               0.512256839065E+00

                                              INSTANTANEOUS             AVERAGES
 CPU TIME [s]                 =                        0.00                 0.00
 ENERGY DRIFT PER ATOM [K]    =         -0.979455841094E-01  -0.156459696156E+00
 POTENTIAL ENERGY[hartree]    =          0.324415415599E+00   0.316607415393E+00
 KINETIC ENERGY [hartree]     =          0.187841423466E+00   0.195603454874E+00
 TEMPERATURE [K]              =                     160.096              166.712
 *******************************************************************************

 FOBSH| Put former active state           1 in new active state           1
 RANDOM_NUMBER_HOPPING_PROBA  0.29995809783956140     
 FOBSH| ACTIVE STATE =            1

 ENERGY| Total FORCE_EVAL ( MIXED ) energy (a.u.):             0.334444373962919

 FOBSH| CASE1: no hop and no trivial crossing
 ENTER integrator.F
 STEP NUMBER                  =           47
 CPU TIME [s]                 =    3.0872770003043115E-003   3.3295599785831539E-003

 *******************************************************************************
 ENSEMBLE TYPE                =                                              NVE
 STEP NUMBER                  =                                               47
 TIME [fs]                    =                                         4.700000
 CONSERVED QUANTITY [hartree] =                               0.512265733082E+00

                                              INSTANTANEOUS             AVERAGES
 CPU TIME [s]                 =                        0.00                 0.00
 ENERGY DRIFT PER ATOM [K]    =         -0.866209660253E-01  -0.154973765728E+00
 POTENTIAL ENERGY[hartree]    =          0.334444373963E+00   0.316986925150E+00
 KINETIC ENERGY [hartree]     =          0.177821359119E+00   0.195225112411E+00
 TEMPERATURE [K]              =                     151.556              166.389
 *******************************************************************************

 FOBSH| Put former active state           1 in new active state           1
 RANDOM_NUMBER_HOPPING_PROBA  0.49850457410536514     
 FOBSH| ACTIVE STATE =            1

 ENERGY| Total FORCE_EVAL ( MIXED ) energy (a.u.):             0.343840927188059

 FOBSH| CASE1: no hop and no trivial crossing
 ENTER integrator.F
 STEP NUMBER                  =           48
 CPU TIME [s]                 =    3.0084559984970838E-003   3.3228703123313608E-003

 *******************************************************************************
 ENSEMBLE TYPE                =                                              NVE
 STEP NUMBER                  =                                               48
 TIME [fs]                    =                                         4.800000
 CONSERVED QUANTITY [hartree] =                               0.512274009302E+00

                                              INSTANTANEOUS             AVERAGES
 CPU TIME [s]                 =                        0.00                 0.00
 ENERGY DRIFT PER ATOM [K]    =         -0.760829803493E-01  -0.153330207699E+00
 POTENTIAL ENERGY[hartree]    =          0.343840927188E+00   0.317546383526E+00
 KINETIC ENERGY [hartree]     =          0.168433082114E+00   0.194666945114E+00
 TEMPERATURE [K]              =                     143.554              165.913
 *******************************************************************************

 FOBSH| Put former active state           1 in new active state           1
 RANDOM_NUMBER_HOPPING_PROBA  0.10893752650800291     
 FOBSH| ACTIVE STATE =            1

 ENERGY| Total FORCE_EVAL ( MIXED ) energy (a.u.):             0.352473057752853

 FOBSH| CASE1: no hop and no trivial crossing
 ENTER integrator.F
 STEP NUMBER                  =           49
 CPU TIME [s]                 =    3.1734700023662299E-003   3.3198213264137048E-003

 *******************************************************************************
 ENSEMBLE TYPE                =                                              NVE
 STEP NUMBER                  =                                               49
[...]
 POTENTIAL ENERGY[hartree]    =          0.244038586679E+00   0.325862293310E+00
 KINETIC ENERGY [hartree]     =          0.268115700150E+00   0.186365166333E+00
 TEMPERATURE [K]              =                     228.513              158.838
 *******************************************************************************

 FOBSH| Put former active state           1 in new active state           1
 RANDOM_NUMBER_HOPPING_PROBA  0.46257257862368051     
 FOBSH| ACTIVE STATE =            1

 ENERGY| Total FORCE_EVAL ( MIXED ) energy (a.u.):             0.237399693426547

 FOBSH| CASE1: no hop and no trivial crossing
 ENTER integrator.F
 STEP NUMBER                  =          191
 CPU TIME [s]                 =    3.2755830034147948E-003   3.2000350261519126E-003

 *******************************************************************************
 ENSEMBLE TYPE                =                                              NVE
 STEP NUMBER                  =                                              191
 TIME [fs]                    =                                        19.100000
 CONSERVED QUANTITY [hartree] =                               0.512149075275E+00

                                              INSTANTANEOUS             AVERAGES
 CPU TIME [s]                 =                        0.00                 0.00
 ENERGY DRIFT PER ATOM [K]    =         -0.235159587422E+00  -0.135872342827E+00
 POTENTIAL ENERGY[hartree]    =          0.237399693427E+00   0.325399138337E+00
 KINETIC ENERGY [hartree]     =          0.274749381848E+00   0.186827910917E+00
 TEMPERATURE [K]              =                     234.167              159.232
 *******************************************************************************

 FOBSH| Put former active state           1 in new active state           1
 RANDOM_NUMBER_HOPPING_PROBA  0.85355390783846685     
 FOBSH| ACTIVE STATE =            1

 ENERGY| Total FORCE_EVAL ( MIXED ) energy (a.u.):             0.231980416731587

 FOBSH| CASE1: no hop and no trivial crossing
 ENTER integrator.F
 STEP NUMBER                  =          192
 CPU TIME [s]                 =    3.2053820032160729E-003   3.2000628749907882E-003

 *******************************************************************************
 ENSEMBLE TYPE                =                                              NVE
 STEP NUMBER                  =                                              192
 TIME [fs]                    =                                        19.200000
 CONSERVED QUANTITY [hartree] =                               0.512144884189E+00

                                              INSTANTANEOUS             AVERAGES
 CPU TIME [s]                 =                        0.00                 0.00
 ENERGY DRIFT PER ATOM [K]    =         -0.240496033145E+00  -0.136417257880E+00
 POTENTIAL ENERGY[hartree]    =          0.231980416732E+00   0.324912582495E+00
 KINETIC ENERGY [hartree]     =          0.280164467458E+00   0.187314038816E+00
 TEMPERATURE [K]              =                     238.782              159.646
 *******************************************************************************

 FOBSH| Put former active state           1 in new active state           1
 RANDOM_NUMBER_HOPPING_PROBA  0.62162719534208455     
 FOBSH| ACTIVE STATE =            1

 ENERGY| Total FORCE_EVAL ( MIXED ) energy (a.u.):             0.227847556999755

 FOBSH| CASE1: no hop and no trivial crossing
 ENTER integrator.F
 STEP NUMBER                  =          193
 CPU TIME [s]                 =    3.2404340017819777E-003   3.2002720518135405E-003

 *******************************************************************************
 ENSEMBLE TYPE                =                                              NVE
 STEP NUMBER                  =                                              193
 TIME [fs]                    =                                        19.300000
 CONSERVED QUANTITY [hartree] =                               0.512141766588E+00

                                              INSTANTANEOUS             AVERAGES
 CPU TIME [s]                 =                        0.00                 0.00
 ENERGY DRIFT PER ATOM [K]    =         -0.244465627152E+00  -0.136977093991E+00
 POTENTIAL ENERGY[hartree]    =          0.227847557000E+00   0.324409654902E+00
 KINETIC ENERGY [hartree]     =          0.284294209589E+00   0.187816526747E+00
 TEMPERATURE [K]              =                     242.302              160.075
 *******************************************************************************

 FOBSH| Put former active state           1 in new active state           1
 RANDOM_NUMBER_HOPPING_PROBA  0.13164870147195876     
 FOBSH| ACTIVE STATE =            1

 ENERGY| Total FORCE_EVAL ( MIXED ) energy (a.u.):             0.225050764283104

 FOBSH| CASE1: no hop and no trivial crossing
 ENTER integrator.F
 STEP NUMBER                  =          194
 CPU TIME [s]                 =    3.2636020041536540E-003   3.2005984948668400E-003

 *******************************************************************************
 ENSEMBLE TYPE                =                                              NVE
 STEP NUMBER                  =                                              194
 TIME [fs]                    =                                        19.400000
 CONSERVED QUANTITY [hartree] =                               0.512139760913E+00

                                              INSTANTANEOUS             AVERAGES
 CPU TIME [s]                 =                        0.00                 0.00
 ENERGY DRIFT PER ATOM [K]    =         -0.247019423167E+00  -0.137544322492E+00
 POTENTIAL ENERGY[hartree]    =          0.225050764283E+00   0.323897495672E+00
 KINETIC ENERGY [hartree]     =          0.287088996630E+00   0.188328240509E+00
 TEMPERATURE [K]              =                     244.684              160.511
 *******************************************************************************

 FOBSH| Put former active state           1 in new active state           1
 RANDOM_NUMBER_HOPPING_PROBA  0.33531674969612718     
 FOBSH| ACTIVE STATE =            1

 ENERGY| Total FORCE_EVAL ( MIXED ) energy (a.u.):             0.223621920075121

 FOBSH| CASE1: no hop and no trivial crossing
 ENTER integrator.F
 STEP NUMBER                  =          195
 CPU TIME [s]                 =    3.3896419918164611E-003   3.2015679486973509E-003

 *******************************************************************************
 ENSEMBLE TYPE                =                                              NVE
 STEP NUMBER                  =                                              195
 TIME [fs]                    =                                        19.500000
 CONSERVED QUANTITY [hartree] =                               0.512138891638E+00

                                              INSTANTANEOUS             AVERAGES
 CPU TIME [s]                 =                        0.00                 0.00
 ENERGY DRIFT PER ATOM [K]    =         -0.248126258625E+00  -0.138111409344E+00
 POTENTIAL ENERGY[hartree]    =          0.223621920075E+00   0.323383261951E+00
 KINETIC ENERGY [hartree]     =          0.288516971562E+00   0.188842028874E+00
 TEMPERATURE [K]              =                     245.901              160.949
 *******************************************************************************

 FOBSH| Put former active state           1 in new active state           1
 RANDOM_NUMBER_HOPPING_PROBA  0.94668851441499113     
 FOBSH| ACTIVE STATE =            1

 ENERGY| Total FORCE_EVAL ( MIXED ) energy (a.u.):             0.223574748580970

 FOBSH| CASE1: no hop and no trivial crossing
 ENTER integrator.F
 STEP NUMBER                  =          196
 CPU TIME [s]                 =    3.3283640077570453E-003   3.2022148673660224E-003

 *******************************************************************************
 ENSEMBLE TYPE                =                                              NVE
 STEP NUMBER                  =                                              196
 TIME [fs]                    =                                        19.600000
 CONSERVED QUANTITY [hartree] =                               0.512139168959E+00

                                              INSTANTANEOUS             AVERAGES
 CPU TIME [s]                 =                        0.00                 0.00
 ENERGY DRIFT PER ATOM [K]    =         -0.247773149290E+00  -0.138670908017E+00
 POTENTIAL ENERGY[hartree]    =          0.223574748581E+00   0.322874034842E+00
 KINETIC ENERGY [hartree]     =          0.288564420378E+00   0.189350816585E+00
 TEMPERATURE [K]              =                     245.942              161.382
 *******************************************************************************

 FOBSH| Put former active state           1 in new active state           1
 RANDOM_NUMBER_HOPPING_PROBA  0.45910308754384571     
 FOBSH| ACTIVE STATE =            1

 ENERGY| Total FORCE_EVAL ( MIXED ) energy (a.u.):             0.224904656576846

 FOBSH| CASE1: no hop and no trivial crossing
 ENTER integrator.F
 STEP NUMBER                  =          197
 CPU TIME [s]                 =    3.2711989915696904E-003   3.2025650405853299E-003

 *******************************************************************************
 ENSEMBLE TYPE                =                                              NVE
 STEP NUMBER                  =                                              197
 TIME [fs]                    =                                        19.700000
 CONSERVED QUANTITY [hartree] =                               0.512140588358E+00

                                              INSTANTANEOUS             AVERAGES
 CPU TIME [s]                 =                        0.00                 0.00
 ENERGY DRIFT PER ATOM [K]    =         -0.245965850245E+00  -0.139215552394E+00
 POTENTIAL ENERGY[hartree]    =          0.224904656577E+00   0.322376728353E+00
 KINETIC ENERGY [hartree]     =          0.287235931781E+00   0.189847695343E+00
 TEMPERATURE [K]              =                     244.809              161.806
 *******************************************************************************

 FOBSH| Put former active state           1 in new active state           1
 RANDOM_NUMBER_HOPPING_PROBA  0.22643546040602397     
 FOBSH| ACTIVE STATE =            1

 ENERGY| Total FORCE_EVAL ( MIXED ) energy (a.u.):             0.227588809281178

 FOBSH| CASE1: no hop and no trivial crossing
 ENTER integrator.F
 STEP NUMBER                  =          198
 CPU TIME [s]                 =    3.2162230054382235E-003   3.2026340202057990E-003

 *******************************************************************************
 ENSEMBLE TYPE                =                                              NVE
 STEP NUMBER                  =                                              198
 TIME [fs]                    =                                        19.800000
 CONSERVED QUANTITY [hartree] =                               0.512143129025E+00

                                              INSTANTANEOUS             AVERAGES
 CPU TIME [s]                 =                        0.00                 0.00
 ENERGY DRIFT PER ATOM [K]    =         -0.242730856899E+00  -0.139738356962E+00
 POTENTIAL ENERGY[hartree]    =          0.227588809281E+00   0.321898001489E+00
 KINETIC ENERGY [hartree]     =          0.284554319744E+00   0.190326011628E+00
 TEMPERATURE [K]              =                     242.524              162.214
 *******************************************************************************

 FOBSH| Put former active state           1 in new active state           1
 RANDOM_NUMBER_HOPPING_PROBA  0.67837434916334804     
 FOBSH| ACTIVE STATE =            1

 ENERGY| Total FORCE_EVAL ( MIXED ) energy (a.u.):             0.231586449885230

 FOBSH| CASE1: no hop and no trivial crossing
 ENTER integrator.F
 STEP NUMBER                  =          199
 CPU TIME [s]                 =    3.1387850031023845E-003   3.2023131708736208E-003

 *******************************************************************************
 ENSEMBLE TYPE                =                                              NVE
 STEP NUMBER                  =                                              199
 TIME [fs]                    =                                        19.900000
 CONSERVED QUANTITY [hartree] =                               0.512146757861E+00

                                              INSTANTANEOUS             AVERAGES
 CPU TIME [s]                 =                        0.00                 0.00
 ENERGY DRIFT PER ATOM [K]    =         -0.238110315883E+00  -0.140232688414E+00
 POTENTIAL ENERGY[hartree]    =          0.231586449885E+00   0.321444174596E+00
 KINETIC ENERGY [hartree]     =          0.280560307975E+00   0.190779450303E+00
 TEMPERATURE [K]              =                     239.120              162.600
 *******************************************************************************

 FOBSH| Put former active state           1 in new active state           1
 RANDOM_NUMBER_HOPPING_PROBA  0.75983624859851318     
 FOBSH| ACTIVE STATE =            1

 ENERGY| Total FORCE_EVAL ( MIXED ) energy (a.u.):             0.236839441462997

 FOBSH| CASE1: no hop and no trivial crossing
 ENTER integrator.F
 STEP NUMBER                  =          200
 CPU TIME [s]                 =    3.2989280007313937E-003   3.2027962450229099E-003

 *******************************************************************************
 ENSEMBLE TYPE                =                                              NVE
 STEP NUMBER                  =                                              200
 TIME [fs]                    =                                        20.000000
 CONSERVED QUANTITY [hartree] =                               0.512151426451E+00

                                              INSTANTANEOUS             AVERAGES
 CPU TIME [s]                 =                        0.00                 0.00
 ENERGY DRIFT PER ATOM [K]    =         -0.232165870072E+00  -0.140692354322E+00
 POTENTIAL ENERGY[hartree]    =          0.236839441463E+00   0.321021150931E+00
 KINETIC ENERGY [hartree]     =          0.275311984988E+00   0.191202112976E+00
 TEMPERATURE [K]              =                     234.647              162.960
 *******************************************************************************


 -------------------------------------------------------------------------------
 -                                                                             -
 -                                DBCSR STATISTICS                             -
 -                                                                             -
 -------------------------------------------------------------------------------
 COUNTER                                    TOTAL       BLAS       SMM       ACC
 flops total                                    0       0.0%      0.0%      0.0%
 flops max/rank                                 0       0.0%      0.0%      0.0%
 matmuls inhomo. stacks                         0       0.0%      0.0%      0.0%
 matmuls total                                  0       0.0%      0.0%      0.0%
 number of processed stacks                     0       0.0%      0.0%      0.0%
 average stack size                                     0.0       0.0       0.0
 marketing flops                     0.000000E+00
 -------------------------------------------------------------------------------

 MEMORY| Estimated peak process memory [MiB]                                  71

 -------------------------------------------------------------------------------
 -                                                                             -
 -                           R E F E R E N C E S                               -
 -                                                                             -
 -------------------------------------------------------------------------------
 
 CP2K version 4.0 (Development Version), the CP2K developers group (2015).
 CP2K is freely available from https://www.cp2k.org/ .

 Spencer J; Gajdos F; Blumberger J. 
 J. Chem. Phys., 145, 064102 (2016). 
 FOB-SH: Fragment orbital-based surface hopping for charge carrier transport in organic and biological molecules and materials.
 http://dx.doi.org/10.1063/1.2206581


 Borstnik, U; VandeVondele, J; Weber, V; Hutter, J. 
 PARALLEL COMPUTING, 40 (5-6), 47-58 (2014). 
 Sparse matrix multiplication: The distributed block-compressed sparse
 row library.
 http://dx.doi.org/10.1016/j.parco.2014.03.012


 Hutter, J; Iannuzzi, M; Schiffmann, F; VandeVondele, J. 
 WILEY INTERDISCIPLINARY REVIEWS-COMPUTATIONAL MOLECULAR SCIENCE, 4 (1), 15-25 (2014). 
 CP2K: atomistic simulations of condensed matter systems.
 http://dx.doi.org/10.1002/wcms.1159


 Frigo, M; Johnson, SG. 
 PROCEEDINGS OF THE IEEE, 93 (2), 216-231 (2005). 
 The design and implementation of FFTW3.
 http://dx.doi.org/10.1109/JPROC.2004.840301


 -------------------------------------------------------------------------------
 -                                                                             -
 -                                T I M I N G                                  -
 -                                                                             -
 -------------------------------------------------------------------------------
 SUBROUTINE                       CALLS  ASD         SELF TIME        TOTAL TIME
                                MAXIMUM       AVERAGE  MAXIMUM  AVERAGE  MAXIMUM
 CP2K                                 1  1.0    0.006    0.006    3.222    3.222
 topology_control                    10  4.0    0.017    0.017    2.386    2.386
 connectivity_control                10  5.0    0.007    0.007    2.333    2.333
 read_topology_psf                 1280  6.0    1.105    1.105    2.324    2.324
 fist_create_force_env                9  2.0    0.000    0.000    2.306    2.306
 fist_init                            9  3.0    0.001    0.001    2.306    2.306
 parser_read_line                 26737  6.8    0.017    0.017    1.324    1.324
 parser_read_line_low              1371  7.9    1.306    1.306    1.308    1.308
 qs_mol_dyn_low                       1  2.0    0.005    0.005    0.655    0.655
 velocity_verlet                    200  3.0    0.112    0.112    0.491    0.491
 fist_calc_energy_force            1809  4.0    0.009    0.009    0.381    0.381
 mixed_create_force_env               1  2.0    0.001    0.001    0.255    0.255
 mixed_init                           1  3.0    0.000    0.000    0.254    0.254
 force_nonbond                     1809  5.0    0.220    0.220    0.220    0.220
 force_field_control                  9  4.0    0.000    0.000    0.172    0.172
 read_force_field_charmm              9  5.0    0.067    0.067    0.156    0.156
 md_output                          200  3.0    0.000    0.000    0.150    0.150
 md_write_output                    201  4.0    0.132    0.132    0.138    0.138
 force_intra_control               1809  5.0    0.137    0.137    0.137    0.137
 -------------------------------------------------------------------------------

 The number of warnings for this run is : 1
 
 -------------------------------------------------------------------------------
  **** **** ******  **  PROGRAM ENDED AT                 2025-08-30 19:02:23.085
 ***** ** ***  *** **   PROGRAM RAN ON                           LAPTOP-V89OQBOH
 **    ****   ******    PROGRAM RAN BY                                       sam
 ***** **    ** ** **   PROGRAM PROCESS ID                                  1175
  **** **  *******  **  PROGRAM STOPPED IN /home/sam/flavoured-cptk/regtest-fobs
                                           h/temp/run-fssh-3NAP-3ANT-mixed-inp-n
                                           o-int-NFF
