     248
 i =        0, time =        0.000, E =         0.5123337626
 Ne       -12.0000000000      -12.0000000000      -12.0000000000
 Ne       -12.0000000000      -12.0000000000        0.0000000000
  C         0.0000326559       -0.7100016306        2.4253201198
  C        -0.0017253656       -1.4075102976        1.2375147617
  C         0.0001258030       -0.7105893456       -0.0035729709
  C         0.0030015302       -1.4012106031       -1.2483440377
  C         0.0017874501        0.7005806235        2.4332966517
  H         0.0169896706       -1.1827235737        3.2835161488
  H        -0.0117873607       -2.3657237260        1.2128818204
  H        -0.0045414502       -2.3484707172       -1.2332317973
  H        -0.0090580484        1.1996123401        3.2877717660
  C        -0.0001258030        0.7105893456        0.0035729709
  C        -0.0017874501       -0.7005806235       -2.4332966517
  C        -0.0030015302        1.4012106031        1.2483440377
  C         0.0017253656        1.4075102976       -1.2375147617
  C        -0.0000326559        0.7100016306       -2.4253201198
  H         0.0090580484       -1.1996123401       -3.2877717660
  H         0.0045414502        2.3484707172        1.2332317973
  H         0.0117873607        2.3657237260       -1.2128818204
  H        -0.0169896706        1.1827235737       -3.2835161488
  C         5.0000326559       -0.7100016306        2.4253201198
  C         4.9982746344       -1.4075102976        1.2375147617
  C         5.0001258030       -0.7105893456       -0.0035729709
  C         5.0030015302       -1.4012106031       -1.2483440377
  C         5.0017874501        0.7005806235        2.4332966517
  H         5.0169896706       -1.1827235737        3.2835161488
  H         4.9882126393       -2.3657237260        1.2128818204
  H         4.9954585498       -2.3484707172       -1.2332317973
  H         4.9909419516        1.1996123401        3.2877717660
  C         4.9998741970        0.7105893456        0.0035729709
  C         4.9982125499       -0.7005806235       -2.4332966517
  C         4.9969984698        1.4012106031        1.2483440377
  C         5.0017253656        1.4075102976       -1.2375147617
  C         4.9999673441        0.7100016306       -2.4253201198
  H         5.0090580484       -1.1996123401       -3.2877717660
  H         5.0045414502        2.3484707172        1.2332317973
  H         5.0117873607        2.3657237260       -1.2128818204
  H         4.9830103294        1.1827235737       -3.2835161488
  C        10.0000326559       -0.7100016306        2.4253201198
  C         9.9982746344       -1.4075102976        1.2375147617
  C        10.0001258030       -0.7105893456       -0.0035729709
  C        10.0030015302       -1.4012106031       -1.2483440377
  C        10.0017874501        0.7005806235        2.4332966517
  H        10.0169896706       -1.1827235737        3.2835161488
  H         9.9882126393       -2.3657237260        1.2128818204
  H         9.9954585498       -2.3484707172       -1.2332317973
  H         9.9909419516        1.1996123401        3.2877717660
  C         9.9998741970        0.7105893456        0.0035729709
  C         9.9982125499       -0.7005806235       -2.4332966517
  C         9.9969984698        1.4012106031        1.2483440377
  C        10.0017253656        1.4075102976       -1.2375147617
  C         9.9999673441        0.7100016306       -2.4253201198
  H        10.0090580484       -1.1996123401       -3.2877717660
  H        10.0045414502        2.3484707172        1.2332317973
  H        10.0117873607        2.3657237260       -1.2128818204
  H         9.9830103294        1.1827235737       -3.2835161488
  C        14.9959517291       -0.7068229762        3.6510116258
  C        14.9937722923       -1.4217923192        2.4780584773
  C        15.0029362797       -0.7148462730        1.2165505268
  C        15.0028545736       -1.4110565931       -0.0102050249
  C        15.0010284642        0.7083153509        1.2235041095
  C        15.0117201135        1.4024630468        2.4847295711
  C        15.0131292136        0.7038460116        3.6529967719
  H        15.0582874962       -1.3573717727        4.5780167582
  H        14.9442796539       -2.5647699230        2.4197345898
  H        15.0293891512       -2.5266879968       -0.0042479061
  H        14.9267021518        2.5254739458        2.4261679197
  H        14.8746980013        1.4789932255        4.5424851621
  C        14.9989715358       -0.7083153509       -1.2235041095
  C        14.9971454264        1.4110565931        0.0102050249
  C        14.9970637203        0.7148462730       -1.2165505268
  C        14.9882798865       -1.4024630468       -2.4847295711
  H        14.9706108488        2.5266879968        0.0042479061
  C        15.0062277077        1.4217923192       -2.4780584773
  C        14.9868707864       -0.7038460116       -3.6529967719
  H        15.0732978482       -2.5254739458       -2.4261679197
  C        15.0040482709        0.7068229762       -3.6510116258
  H        15.0557203461        2.5647699230       -2.4197345898
  H        15.1253019987       -1.4789932255       -4.5424851621
  H        14.9417125038        1.3573717727       -4.5780167582
  C        19.9959517291       -0.7068229762        3.6510116258
  C        19.9937722923       -1.4217923192        2.4780584773
  C        20.0029362797       -0.7148462730        1.2165505268
  C        20.0028545736       -1.4110565931       -0.0102050249
  C        20.0010284642        0.7083153509        1.2235041095
  C        20.0117201135        1.4024630468        2.4847295711
  C        20.0131292136        0.7038460116        3.6529967719
  H        20.0582874962       -1.3573717727        4.5780167582
  H        19.9442796539       -2.5647699230        2.4197345898
  H        20.0293891512       -2.5266879968       -0.0042479061
  H        19.9267021518        2.5254739458        2.4261679197
  H        19.8746980013        1.4789932255        4.5424851621
  C        19.9989715358       -0.7083153509       -1.2235041095
  C        19.9971454264        1.4110565931        0.0102050249
  C        19.9970637203        0.7148462730       -1.2165505268
  C        19.9882798865       -1.4024630468       -2.4847295711
  H        19.9706108488        2.5266879968        0.0042479061
  C        20.0062277077        1.4217923192       -2.4780584773
  C        19.9868707864       -0.7038460116       -3.6529967719
  H        20.0732978482       -2.5254739458       -2.4261679197
  C        20.0040482709        0.7068229762       -3.6510116258
  H        20.0557203461        2.5647699230       -2.4197345898
  H        20.1253019987       -1.4789932255       -4.5424851621
  H        19.9417125038        1.3573717727       -4.5780167582
  C        24.9959517291       -0.7068229762        3.6510116258
  C        24.9937722923       -1.4217923192        2.4780584773
  C        25.0029362797       -0.7148462730        1.2165505268
  C        25.0028545736       -1.4110565931       -0.0102050249
  C        25.0010284642        0.7083153509        1.2235041095
  C        25.0117201135        1.4024630468        2.4847295711
  C        25.0131292136        0.7038460116        3.6529967719
  H        25.0582874962       -1.3573717727        4.5780167582
  H        24.9442796539       -2.5647699230        2.4197345898
  H        25.0293891512       -2.5266879968       -0.0042479061
  H        24.9267021518        2.5254739458        2.4261679197
  H        24.8746980013        1.4789932255        4.5424851621
  C        24.9989715358       -0.7083153509       -1.2235041095
  C        24.9971454264        1.4110565931        0.0102050249
  C        24.9970637203        0.7148462730       -1.2165505268
  C        24.9882798865       -1.4024630468       -2.4847295711
  H        24.9706108488        2.5266879968        0.0042479061
  C        25.0062277077        1.4217923192       -2.4780584773
  C        24.9868707864       -0.7038460116       -3.6529967719
  H        25.0732978482       -2.5254739458       -2.4261679197
  C        25.0040482709        0.7068229762       -3.6510116258
  H        25.0557203461        2.5647699230       -2.4197345898
  H        25.1253019987       -1.4789932255       -4.5424851621
  H        24.9417125038        1.3573717727       -4.5780167582
 Ne       -12.0000000000      -12.0000000000       12.0000000000
 Ne       -12.0000000000      -12.0000000000       24.0000000000
 Ne       -12.0000000000      -12.0000000000       36.0000000000
 Ne       -12.0000000000        0.0000000000      -12.0000000000
 Ne       -12.0000000000        0.0000000000        0.0000000000
 Ne       -12.0000000000        0.0000000000       12.0000000000
 Ne       -12.0000000000        0.0000000000       24.0000000000
 Ne       -12.0000000000        0.0000000000       36.0000000000
 Ne       -12.0000000000       12.0000000000      -12.0000000000
 Ne       -12.0000000000       12.0000000000        0.0000000000
 Ne       -12.0000000000       12.0000000000       12.0000000000
 Ne       -12.0000000000       12.0000000000       24.0000000000
 Ne       -12.0000000000       12.0000000000       36.0000000000
 Ne       -12.0000000000       24.0000000000      -12.0000000000
 Ne       -12.0000000000       24.0000000000        0.0000000000
 Ne       -12.0000000000       24.0000000000       12.0000000000
 Ne       -12.0000000000       24.0000000000       24.0000000000
 Ne       -12.0000000000       24.0000000000       36.0000000000
 Ne       -12.0000000000       36.0000000000      -12.0000000000
 Ne       -12.0000000000       36.0000000000        0.0000000000
 Ne       -12.0000000000       36.0000000000       12.0000000000
 Ne       -12.0000000000       36.0000000000       24.0000000000
 Ne       -12.0000000000       36.0000000000       36.0000000000
 Ne         0.0000000000      -12.0000000000      -12.0000000000
 Ne         0.0000000000      -12.0000000000        0.0000000000
 Ne         0.0000000000      -12.0000000000       12.0000000000
 Ne         0.0000000000      -12.0000000000       24.0000000000
 Ne         0.0000000000      -12.0000000000       36.0000000000
 Ne         0.0000000000        0.0000000000      -12.0000000000
 Ne         0.0000000000        0.0000000000       12.0000000000
 Ne         0.0000000000        0.0000000000       24.0000000000
 Ne         0.0000000000        0.0000000000       36.0000000000
 Ne         0.0000000000       12.0000000000      -12.0000000000
 Ne         0.0000000000       12.0000000000        0.0000000000
 Ne         0.0000000000       12.0000000000       12.0000000000
 Ne         0.0000000000       12.0000000000       24.0000000000
 Ne         0.0000000000       12.0000000000       36.0000000000
 Ne         0.0000000000       24.0000000000      -12.0000000000
 Ne         0.0000000000       24.0000000000        0.0000000000
 Ne         0.0000000000       24.0000000000       12.0000000000
 Ne         0.0000000000       24.0000000000       24.0000000000
 Ne         0.0000000000       24.0000000000       36.0000000000
 Ne         0.0000000000       36.0000000000      -12.0000000000
 Ne         0.0000000000       36.0000000000        0.0000000000
 Ne         0.0000000000       36.0000000000       12.0000000000
 Ne         0.0000000000       36.0000000000       24.0000000000
 Ne         0.0000000000       36.0000000000       36.0000000000
 Ne        12.0000000000      -12.0000000000      -12.0000000000
 Ne        12.0000000000      -12.0000000000        0.0000000000
 Ne        12.0000000000      -12.0000000000       12.0000000000
 Ne        12.0000000000      -12.0000000000       24.0000000000
 Ne        12.0000000000      -12.0000000000       36.0000000000
 Ne        12.0000000000        0.0000000000      -12.0000000000
 Ne        12.0000000000        0.0000000000       12.0000000000
 Ne        12.0000000000        0.0000000000       24.0000000000
 Ne        12.0000000000        0.0000000000       36.0000000000
 Ne        12.0000000000       12.0000000000      -12.0000000000
 Ne        12.0000000000       12.0000000000        0.0000000000
 Ne        12.0000000000       12.0000000000       12.0000000000
 Ne        12.0000000000       12.0000000000       24.0000000000
 Ne        12.0000000000       12.0000000000       36.0000000000
 Ne        12.0000000000       24.0000000000      -12.0000000000
 Ne        12.0000000000       24.0000000000        0.0000000000
 Ne        12.0000000000       24.0000000000       12.0000000000
 Ne        12.0000000000       24.0000000000       24.0000000000
 Ne        12.0000000000       24.0000000000       36.0000000000
 Ne        12.0000000000       36.0000000000      -12.0000000000
 Ne        12.0000000000       36.0000000000        0.0000000000
 Ne        12.0000000000       36.0000000000       12.0000000000
 Ne        12.0000000000       36.0000000000       24.0000000000
 Ne        12.0000000000       36.0000000000       36.0000000000
 Ne        24.0000000000      -12.0000000000      -12.0000000000
 Ne        24.0000000000      -12.0000000000        0.0000000000
 Ne        24.0000000000      -12.0000000000       12.0000000000
 Ne        24.0000000000      -12.0000000000       24.0000000000
 Ne        24.0000000000      -12.0000000000       36.0000000000
 Ne        24.0000000000        0.0000000000      -12.0000000000
 Ne        24.0000000000        0.0000000000       12.0000000000
 Ne        24.0000000000        0.0000000000       24.0000000000
 Ne        24.0000000000        0.0000000000       36.0000000000
 Ne        24.0000000000       12.0000000000      -12.0000000000
 Ne        24.0000000000       12.0000000000        0.0000000000
 Ne        24.0000000000       12.0000000000       12.0000000000
 Ne        24.0000000000       12.0000000000       24.0000000000
 Ne        24.0000000000       12.0000000000       36.0000000000
 Ne        24.0000000000       24.0000000000      -12.0000000000
 Ne        24.0000000000       24.0000000000        0.0000000000
 Ne        24.0000000000       24.0000000000       12.0000000000
 Ne        24.0000000000       24.0000000000       24.0000000000
 Ne        24.0000000000       24.0000000000       36.0000000000
 Ne        24.0000000000       36.0000000000      -12.0000000000
 Ne        24.0000000000       36.0000000000        0.0000000000
 Ne        24.0000000000       36.0000000000       12.0000000000
 Ne        24.0000000000       36.0000000000       24.0000000000
 Ne        24.0000000000       36.0000000000       36.0000000000
 Ne        36.0000000000      -12.0000000000      -12.0000000000
 Ne        36.0000000000      -12.0000000000        0.0000000000
 Ne        36.0000000000      -12.0000000000       12.0000000000
 Ne        36.0000000000      -12.0000000000       24.0000000000
 Ne        36.0000000000      -12.0000000000       36.0000000000
 Ne        36.0000000000        0.0000000000      -12.0000000000
 Ne        36.0000000000        0.0000000000        0.0000000000
 Ne        36.0000000000        0.0000000000       12.0000000000
 Ne        36.0000000000        0.0000000000       24.0000000000
 Ne        36.0000000000        0.0000000000       36.0000000000
 Ne        36.0000000000       12.0000000000      -12.0000000000
 Ne        36.0000000000       12.0000000000        0.0000000000
 Ne        36.0000000000       12.0000000000       12.0000000000
 Ne        36.0000000000       12.0000000000       24.0000000000
 Ne        36.0000000000       12.0000000000       36.0000000000
 Ne        36.0000000000       24.0000000000      -12.0000000000
 Ne        36.0000000000       24.0000000000        0.0000000000
 Ne        36.0000000000       24.0000000000       12.0000000000
 Ne        36.0000000000       24.0000000000       24.0000000000
 Ne        36.0000000000       24.0000000000       36.0000000000
 Ne        36.0000000000       36.0000000000      -12.0000000000
 Ne        36.0000000000       36.0000000000        0.0000000000
 Ne        36.0000000000       36.0000000000       12.0000000000
 Ne        36.0000000000       36.0000000000       24.0000000000
 Ne        36.0000000000       36.0000000000       36.0000000000
     248
 i =      200, time =       20.000, E =         0.2368394415
 Ne       -12.0000000000      -12.0000000000      -12.0000000000
 Ne       -12.0000000000      -12.0000000000        0.0000000000
  C         0.0019354423       -0.7314733077        2.4504943350
  C         0.0007610333       -1.4276282991        1.2437490541
  C         0.0008208947       -0.7203930755       -0.0001667541
  C         0.0012316313       -1.4266728856       -1.2467615546
  C         0.0010415193        0.7140264374        2.4548770901
  H        -0.0073757034       -1.2595262049        3.3734604887
  H         0.0070601658       -2.4824377965        1.1960505577
  H         0.0075327545       -2.4802832389       -1.2038023933
  H         0.0082574841        1.2502898110        3.3761386789
  C         0.0019530934        0.7203925337        0.0001673162
  C         0.0012860144       -0.7140259457       -2.4548775081
  C         0.0013882769        1.4266733197        1.2467619073
  C         0.0018587515        1.4276270665       -1.2437496487
  C         0.0003915858        0.7314736732       -2.4504950336
  H        -0.0051735119       -1.2502929770       -3.3761441914
  H        -0.0041935389        2.4802884757        1.2038025042
  H        -0.0037212753        2.4824413079       -1.1960511635
  H         0.0104552075        1.2595217067       -3.3734542799
  C         5.0008387504       -0.7216802555        2.4705531528
  C         4.9993789349       -1.4302919539        1.2410923836
  C         4.9994550760       -0.7201015240       -0.0001501862
  C         4.9999916163       -1.4293545172       -1.2440909577
  C         4.9999126467        0.7042029195        2.4749475429
  H         4.9911854832       -1.2354054913        3.4018190541
  H         5.0053471037       -2.4848911831        1.1837100387
  H         5.0059141191       -2.4827763021       -1.1913564735
  H         5.0068214514        1.2259317863        3.4045045105
  C         5.0005442036        0.7201015239        0.0001501859
  C         5.0000867570       -0.7042029180       -2.4749475391
  C         5.0000077299        1.4293545170        1.2440909580
  C         5.0006204112        1.4302919540       -1.2410923843
  C         4.9991606515        0.7216802576       -2.4705531587
  H         4.9931775832       -1.2259317885       -3.4045045203
  H         4.9940848559        2.4827762989        1.1913564728
  H         4.9946518674        2.4848911801       -1.1837100385
  H         5.0088135685        1.2354054949       -3.4018190620
  C        10.0011021520       -0.7314299839        2.4503892767
  C         9.9996335183       -1.4275036358        1.2436726323
  C         9.9995645896       -0.7203195326       -0.0001669229
  C        10.0001100156       -1.4265497458       -1.2466845208
  C        10.0002054478        0.7139838403        2.4547721722
  H         9.9917293955       -1.2594835568        3.3733354122
  H        10.0056912998       -2.4822945579        1.1959590354
  H        10.0061718653       -2.4801416500       -1.2037107805
  H        10.0073759709        1.2502498646        3.3760147115
  C        10.0006981609        0.7203194010        0.0001671886
  C        10.0004480493       -0.7139835453       -2.4547716725
  C        10.0002648698        1.4265500826        1.2466844104
  C        10.0007389608        1.4275035345       -1.2436720028
  C         9.9995497236        0.7314301893       -2.4503892355
  H         9.9939189933       -1.2502519809       -3.3760186996
  H         9.9944333938        2.4801435419        1.2037100542
  H         9.9949100147        2.4822960795       -1.1959591298
  H        10.0095603627        1.2594808103       -3.3733293510
  C        14.9980997051       -0.7080216232        3.6664775457
  C        15.0020920264       -1.4028091343        2.4809710329
  C        15.0035339615       -0.7105224532        1.2066644844
  C        15.0016379011       -1.4125173929        0.0015056837
  C        15.0038105071        0.7092302090        1.2010070801
  C        14.9920907255        1.4092635812        2.4794775876
  C        14.9922884544        0.6829904266        3.6739466797
  H        14.9706316835       -1.2919788638        4.5961823063
  H        15.0125917345       -2.5015538957        2.3993518501
  H        14.9832936135       -2.5051046157        0.0072964628
  H        15.0758657834        2.5033005544        2.3862883477
  H        15.0898397358        1.3324686746        4.5928370648
  C        14.9965524619       -0.7092291620       -1.2010059423
  C        14.9986681276        1.4125182596       -0.0015048273
  C        14.9968275017        0.7105228065       -1.2066633439
  C        15.0084859009       -1.4092611743       -2.4794740433
  H        15.0171128642        2.5051038501       -0.0072966380
  C        14.9984794110        1.4028090079       -2.4809698894
  C        15.0085190180       -0.6829881460       -3.6739427705
  H        14.9249743036       -2.5033191072       -2.3862958837
  C        15.0027070385        0.7080225573       -3.6664768350
  H        14.9882458891        2.5015563310       -2.3993504459
  H        14.9115822788       -1.3324905768       -4.5928771756
  H        15.0307752885        1.2919723278       -4.5961670766
  C        19.9977038784       -0.6917118394        3.6796895700
  C        20.0016873459       -1.4047751607        2.4678789559
  C        20.0033028027       -0.7101733752        1.2162167927
  C        20.0016026998       -1.4198149751        0.0014945487
  C        20.0036909689        0.7088556209        1.2105050602
  C        19.9918488519        1.4111798207        2.4664252699
  C        19.9919819404        0.6666003096        3.6870566001
  H        19.9699327353       -1.2836188015        4.6043520040
  H        20.0123549271       -2.5051257459        2.3905003393
  H        19.9829643647       -2.5137986142        0.0073048915
  H        20.0755977780        2.5068306978        2.3772352431
  H        20.0890747220        1.3242687148        4.6007200548
  C        19.9963096107       -0.7088556216       -1.2105050604
  C        19.9983978885        1.4198149753       -0.0014945491
  C        19.9966977762        0.7101733739       -1.2162167924
  C        20.0081516195       -1.4111798202       -2.4664252696
  H        20.0170365782        2.5137986078       -0.0073048926
  C        19.9983131309        1.4047751540       -2.4678789508
  C        20.0080184460       -0.6666003065       -3.6870565929
  H        19.9244030007       -2.5068307194       -2.3772352465
  C        20.0022965071        0.6917118397       -3.6796895696
  H        19.9876459063        2.5051257396       -2.3905002981
  H        19.9109259639       -1.3242687399       -4.6007200730
  H        20.0300678880        1.2836187966       -4.6043519950
  C        24.9965323079       -0.7080347250        3.6667231078
  C        25.0004749198       -1.4028934376        2.4811720791
  C        25.0018460279       -0.7105875536        1.2067767567
  C        24.9998972670       -1.4126323634        0.0015041203
  C        25.0021174175        0.7092921363        1.2011186421
  C        24.9904618045        1.4093447933        2.4796762653
  C        24.9907243227        0.6829984493        3.6741902790
  H        24.9684189490       -1.2919417589        4.5964500256
  H        25.0104613448       -2.5016612503        2.3995643933
  H        24.9812207562       -2.5052358834        0.0072951720
  H        25.0737210747        2.5034402912        2.3865041926
  H        25.0875745190        1.3324713086        4.5931645057
  C        24.9948752238       -0.7092936913       -1.2011225550
  C        24.9969449113        1.4126298111       -0.0015053718
  C        24.9951504016        0.7105873777       -1.2067800970
  C        25.0068532019       -1.4093485314       -2.4796775350
  H        25.0150460300        2.5052421160       -0.0072929104
  C        24.9968466663        1.4028956600       -2.4811713988
  C        25.0069518530       -0.6830042410       -3.6741927410
  H        24.9228209345       -2.5033841674       -2.3864997528
  C        25.0011492314        0.7080329512       -3.6667250043
  H        24.9860952397        2.5016577486       -2.3995644364
  H        24.9093189716       -1.3324320876       -4.5931179553
  H        25.0284972310        1.2919551126       -4.5964661552
 Ne       -12.0000000000      -12.0000000000       12.0000000000
 Ne       -12.0000000000      -12.0000000000       24.0000000000
 Ne       -12.0000000000      -12.0000000000       36.0000000000
 Ne       -12.0000000000        0.0000000000      -12.0000000000
 Ne       -12.0000000000        0.0000000000        0.0000000000
 Ne       -12.0000000000        0.0000000000       12.0000000000
 Ne       -12.0000000000        0.0000000000       24.0000000000
 Ne       -12.0000000000        0.0000000000       36.0000000000
 Ne       -12.0000000000       12.0000000000      -12.0000000000
 Ne       -12.0000000000       12.0000000000        0.0000000000
 Ne       -12.0000000000       12.0000000000       12.0000000000
 Ne       -12.0000000000       12.0000000000       24.0000000000
 Ne       -12.0000000000       12.0000000000       36.0000000000
 Ne       -12.0000000000       24.0000000000      -12.0000000000
 Ne       -12.0000000000       24.0000000000        0.0000000000
 Ne       -12.0000000000       24.0000000000       12.0000000000
 Ne       -12.0000000000       24.0000000000       24.0000000000
 Ne       -12.0000000000       24.0000000000       36.0000000000
 Ne       -12.0000000000       36.0000000000      -12.0000000000
 Ne       -12.0000000000       36.0000000000        0.0000000000
 Ne       -12.0000000000       36.0000000000       12.0000000000
 Ne       -12.0000000000       36.0000000000       24.0000000000
 Ne       -12.0000000000       36.0000000000       36.0000000000
 Ne         0.0000000000      -12.0000000000      -12.0000000000
 Ne         0.0000000000      -12.0000000000        0.0000000000
 Ne         0.0000000000      -12.0000000000       12.0000000000
 Ne         0.0000000000      -12.0000000000       24.0000000000
 Ne         0.0000000000      -12.0000000000       36.0000000000
 Ne         0.0000000000        0.0000000000      -12.0000000000
 Ne         0.0000000000        0.0000000000       12.0000000000
 Ne         0.0000000000        0.0000000000       24.0000000000
 Ne         0.0000000000        0.0000000000       36.0000000000
 Ne         0.0000000000       12.0000000000      -12.0000000000
 Ne         0.0000000000       12.0000000000        0.0000000000
 Ne         0.0000000000       12.0000000000       12.0000000000
 Ne         0.0000000000       12.0000000000       24.0000000000
 Ne         0.0000000000       12.0000000000       36.0000000000
 Ne         0.0000000000       24.0000000000      -12.0000000000
 Ne         0.0000000000       24.0000000000        0.0000000000
 Ne         0.0000000000       24.0000000000       12.0000000000
 Ne         0.0000000000       24.0000000000       24.0000000000
 Ne         0.0000000000       24.0000000000       36.0000000000
 Ne         0.0000000000       36.0000000000      -12.0000000000
 Ne         0.0000000000       36.0000000000        0.0000000000
 Ne         0.0000000000       36.0000000000       12.0000000000
 Ne         0.0000000000       36.0000000000       24.0000000000
 Ne         0.0000000000       36.0000000000       36.0000000000
 Ne        12.0000000000      -12.0000000000      -12.0000000000
 Ne        12.0000000000      -12.0000000000        0.0000000000
 Ne        12.0000000000      -12.0000000000       12.0000000000
 Ne        12.0000000000      -12.0000000000       24.0000000000
 Ne        12.0000000000      -12.0000000000       36.0000000000
 Ne        12.0000001412       -0.0000000210      -11.9999996577
 Ne        12.0000001739        0.0000000021       11.9999995767
 Ne        12.0000000000        0.0000000000       24.0000000000
 Ne        12.0000000000        0.0000000000       36.0000000000
 Ne        12.0000000000       12.0000000000      -12.0000000000
 Ne        12.0000000000       12.0000000000        0.0000000000
 Ne        12.0000000000       12.0000000000       12.0000000000
 Ne        12.0000000000       12.0000000000       24.0000000000
 Ne        12.0000000000       12.0000000000       36.0000000000
 Ne        12.0000000000       24.0000000000      -12.0000000000
 Ne        12.0000000000       24.0000000000        0.0000000000
 Ne        12.0000000000       24.0000000000       12.0000000000
 Ne        12.0000000000       24.0000000000       24.0000000000
 Ne        12.0000000000       24.0000000000       36.0000000000
 Ne        12.0000000000       36.0000000000      -12.0000000000
 Ne        12.0000000000       36.0000000000        0.0000000000
 Ne        12.0000000000       36.0000000000       12.0000000000
 Ne        12.0000000000       36.0000000000       24.0000000000
 Ne        12.0000000000       36.0000000000       36.0000000000
 Ne        24.0000000000      -12.0000000000      -12.0000000000
 Ne        24.0000000000      -12.0000000000        0.0000000000
 Ne        24.0000000000      -12.0000000000       12.0000000000
 Ne        24.0000000000      -12.0000000000       24.0000000000
 Ne        24.0000000000      -12.0000000000       36.0000000000
 Ne        24.0000002918        0.0000000013      -11.9999978813
 Ne        24.0000002820       -0.0000000002       11.9999978751
 Ne        24.0000000000        0.0000000000       24.0000000000
 Ne        24.0000000000        0.0000000000       36.0000000000
 Ne        24.0000000000       12.0000000000      -12.0000000000
 Ne        24.0000000000       12.0000000000        0.0000000000
 Ne        24.0000000000       12.0000000000       12.0000000000