#     Step Nr.          Time[fs]        Kin.[a.u.]          Temp[K]            Pot.[a.u.]        Cons Qty[a.u.]        UsedTime[s]
         0            0.000000         2.412123729       564.840579357         2.446232218         4.858355947         0.000000000
         1            0.100000         2.440711636       571.534933276         2.417622452         4.858334088        66.220835193
         2            0.200000         2.467926334       577.907726488         2.390386990         4.858313324         0.074903741
         3            0.300000         2.493438358       583.881809053         2.364855774         4.858294131         0.074875392
         4            0.400000         2.516943072       589.385845291         2.341333700         4.858276772         0.074713239
         5            0.500000         2.538165197       594.355373585         2.320096254         4.858261451         0.074751008
         6            0.600000         2.556862418       598.733652118         2.301385962         4.858248381         0.074580107
         7            0.700000         2.572828464       602.472378345         2.285409261         4.858237724         0.074776724
         8            0.800000         2.585895711       605.532300908         2.272333893         4.858229604         0.074752909
         9            0.900000         2.595937289       607.883710433         2.262286856         4.858224145         0.074784880
        10            1.000000         2.602868606       609.506798345         2.255352767         4.858221373         0.074449104
        11            1.100000         2.606648355       610.391892043         2.251572980         4.858221335         0.074337467
        12            1.200000         2.607278928       610.539551787         2.250945077         4.858224006         0.074347152
        13            1.300000         2.604806191       609.960517554         2.253423167         4.858229359         0.074674444
        14            1.400000         2.599318759       608.675540126         2.258918535         4.858237293         0.074645518
        15            1.500000         2.590946738       606.715086333         2.267300976         4.858247714         0.074786075
        16            1.600000         2.579859894       604.118909654         2.278400547         4.858260441         0.074548379
        17            1.700000         2.566265225       600.935482291         2.292010105         4.858275330         0.074768712
        18            1.800000         2.550404082       597.221320823         2.307888090         4.858292173         0.074400185
        19            1.900000         2.532548874       593.040214253         2.325761822         4.858310696         0.074312939
        20            2.000000         2.512999411       588.462368610         2.345331280         4.858330691         0.074081609
        21            2.100000         2.492078777       583.563439556         2.366273090         4.858351867         0.074201970
        22            2.200000         2.470128864       578.423487151         2.388245066         4.858373930         0.074209371
        23            2.300000         2.447505801       573.125904691         2.410890789         4.858396590         0.074097468
        24            2.400000         2.424575157       567.756297037         2.433844363         4.858419520         0.073979395
        25            2.500000         2.401706960       562.401312413         2.456735448         4.858442408         0.074944772
        26            2.600000         2.379221337       557.135913973         2.479243622         4.858464959         0.073798162
        27            2.700000         2.357528007       552.056044821         2.500958862         4.858486870         0.074550729
        28            2.800000         2.336980582       547.244508993         2.521527224         4.858507806         0.073982195
        29            2.900000         2.317917427       542.780540794         2.540610089         4.858527515         0.074236191
        30            3.000000         2.300657067       538.738728322         2.557888685         4.858545751         0.074083795
        31            3.100000         2.285493880       535.188005415         2.573068296         4.858562177         0.073892075
        32            3.200000         2.272694004       532.190692493         2.585882621         4.858576624         0.073936274
        33            3.300000         2.262491711       529.801648796         2.596097175         4.858588886         0.073941913
        34            3.400000         2.255086211       528.067522734         2.603512572         4.858598784         0.074171314
        35            3.500000         2.250638848       527.026095611         2.607967327         4.858606176         0.074033689
        36            3.600000         2.249270848       526.705754505         2.609340099         4.858610946         0.073669258
        37            3.700000         2.251061593       527.125088591         2.607551421         4.858613014         0.073841408
        38            3.800000         2.256047438       528.292610521         2.602564943         4.858612381         0.073889856
        39            3.900000         2.264221037       530.206600381         2.594387964         4.858609001         0.074496592
        40            4.000000         2.275531343       532.855104718         2.583071572         4.858602915         0.074482234
        41            4.100000         2.289884097       536.216050711         2.568710143         4.858594240         0.073810312
        42            4.200000         2.307142842       540.257485069         2.551440187         4.858583029         0.074257130
        43            4.300000         2.327130636       544.937973492         2.531438773         4.858569409         0.062717807
        44            4.400000         2.349632251       550.207116629         2.508921334         4.858553585         0.040195768
        45            4.500000         2.374396853       556.006177458         2.484138882         4.858535735         0.040254973
        46            4.600000         2.401141093       562.268804787         2.457375012         4.858516105         0.040136131
        47            4.700000         2.429552711       568.921877442         2.428942214         4.858494925         0.040119109
        48            4.800000         2.459294533       575.886440654         2.399177924         4.858472457         0.040257404
        49            4.900000         2.490008688       583.078692491         2.368440322         4.858449010         0.040194259
        50            5.000000         2.521321182       590.411055515         2.337103671         4.858424852         0.040051796
        51            5.100000         2.552846674       597.793295876         2.305553636         4.858400310         0.040399421
        52            5.200000         2.584193400       605.133675262         2.274182300         4.858375700         0.040324906
        53            5.300000         2.614968288       612.340148533         2.243383102         4.858351389         0.040125609
        54            5.400000         2.644783069       619.321796283         2.213544991         4.858328060         0.039992565
        55            5.500000         2.673230779       625.983320641         2.185083286         4.858314064         0.051993761
        56            5.600000         2.699996125       632.250890452         2.158299489         4.858295615         0.040016930
        57            5.700000         2.724762996       638.050482518         2.133491112         4.858254108         0.051967203
        58            5.800000         2.747028740       643.264392476         2.111191317         4.858220058         0.040026352
        59            5.900000         2.766737297       647.879492677         2.091459586         4.858196883         0.051809463
        60            6.000000         2.783348936       651.769395741         2.074828189         4.858177125         0.040085750
        61            6.100000         2.796834732       654.927328776         2.061327657         4.858162389         0.040113206
        62            6.200000         2.806947463       657.295399969         2.051205057         4.858152520         0.040065180
        63            6.300000         2.813523834       658.835371127         2.044621672         4.858145506         0.040358896
        64            6.400000         2.816448683       659.520275193         2.041692608         4.858141290         0.039926551
        65            6.500000         2.815651316       659.333557939         2.042488572         4.858139888         0.040102439
        66            6.600000         2.811105956       658.269183186         2.047035364         4.858141320         0.040300321
        67            6.700000         2.802832089       656.331713719         2.055313519         4.858145608         0.092926719
        68            6.800000         2.790894237       653.536258724         2.067258424         4.858152661         0.039903171
        69            6.900000         2.775401266       649.908311198         2.082761181         4.858162447         0.040242850
        70            7.000000         2.756505174       645.483463689         2.101669624         4.858174799         0.039944208
        71            7.100000         2.734399278       640.306985015         2.123790334         4.858189612         0.039761395
        72            7.200000         2.709315919       634.433281634         2.148890770         4.858206688         0.065369493
        73            7.300000         2.681523647       627.925239593         2.176702187         4.858225835         0.073193787
        74            7.400000         2.651323955       620.853458167         2.206922872         4.858246827         0.073852805
        75            7.500000         2.619047610       613.295392541         2.239221786         4.858269396         0.073335598
        76            7.600000         2.585050637       605.334412162         2.273242636         4.858293273         0.073523054
        77            7.700000         2.549709981       597.058784895         2.308608185         4.858318166         0.073310365
        78            7.800000         2.513418928       588.560605758         2.344924828         4.858343755         0.073724368
        79            7.900000         2.476582294       579.934669655         2.381787488         4.858369782         0.073627724
        80            8.000000         2.439611429       571.277300743         2.418784447         4.858395876         0.073619982
        81            8.100000         2.402919230       562.685186291         2.455502547         4.858421777         0.073357268
        82            8.200000         2.366915116       554.254198946         2.491532017         4.858447133         0.073450585
        83            8.300000         2.332000005       546.078220520         2.526471640         4.858471645         0.073270680
        84            8.400000         2.298561429       538.247998561         2.559933572         4.858495001         0.073576799
        85            8.500000         2.266968813       530.850039870         2.591548123         4.858516936         0.073739653
        86            8.600000         2.237569004       523.965564984         2.620968189         4.858537193         0.073546136
        87            8.700000         2.210682040       517.669516353         2.647873468         4.858555508         0.072997213
        88            8.800000         2.186597307       512.029658630         2.671974376         4.858571683         0.073647001
        89            8.900000         2.165570048       507.105761602         2.693015466         4.858585514         0.073534567
        90            9.000000         2.147818307       502.948883755         2.710778524         4.858596831         0.073704774
        91            9.100000         2.133520356       499.600770741         2.725085170         4.858605527         0.073627028
        92            9.200000         2.122812562       497.093355178         2.735798926         4.858611488         0.073120438
        93            9.300000         2.115787819       495.448389750         2.742826834         4.858614653         0.073257434
        94            9.400000         2.112494570       494.677218383         2.746120413         4.858614983         0.073395323
        95            9.500000         2.112936289       494.780654678         2.745676209         4.858612498         0.073372591
        96            9.600000         2.117071549       495.748997435         2.741535664         4.858607213         0.073112741
        97            9.700000         2.124814680       497.562185684         2.733784536         4.858599216         0.073320558
        98            9.800000         2.136036970       500.190079444         2.722551661         4.858588631         0.073262408
        99            9.900000         2.150568401       503.592865773         2.708007187         4.858575588         0.073507512
       100           10.000000         2.168199879       507.721582059         2.690360365         4.858560244         0.073289630
       101           10.100000         2.188685988       512.518759441         2.669856823         4.858542811         0.073270885
       102           10.200000         2.211748150       517.919164594         2.646775362         4.858523512         0.074041140
       103           10.300000         2.237078182       523.850630622         2.621424396         4.858502578         0.073513612
       104           10.400000         2.264342274       530.234990272         2.594138030         4.858480304         0.073404086
       105           10.500000         2.293185235       536.989069508         2.565271715         4.858456950         0.073412285
       106           10.600000         2.323235000       544.025742710         2.535197831         4.858432831         0.073453870
       107           10.700000         2.354107364       551.255041790         2.504300868         4.858408232         0.073712625
       108           10.800000         2.385410816       558.585287849         2.472972648         4.858383465         0.073493294
       109           10.900000         2.416751501       565.924252256         2.441607358         4.858358858         0.073384345
       110           11.000000         2.447738186       573.180321749         2.410596523         4.858334709         0.073499229
       111           11.100000         2.477987160       580.263643337         2.380324152         4.858311312         0.073699184
       112           11.200000         2.507127005       587.087243151         2.351161951         4.858288956         0.073573729
       113           11.300000         2.534803288       593.568124320         2.323464620         4.858267907         0.073494418
       114           11.400000         2.560682925       599.628289956         2.297565537         4.858248462         0.073792952
       115           11.500000         2.584458269       605.195698885         2.273772567         4.858230836         0.073376244
       116           11.600000         2.605850898       610.205153821         2.252364334         4.858215233         0.073821813
       117           11.700000         2.624613990       614.598857027         2.233587261         4.858201251         0.073312718
       118           11.800000         2.640537978       618.327734819         2.217648075         4.858186053         0.073612114
       119           11.900000         2.653452810       621.351966572         2.204724427         4.858177237         0.073080917
       120           12.000000         2.663226315       623.640602128         2.194945012         4.858171327         0.072895729
       121           12.100000         2.669767635       625.172365422         2.188400452         4.858168087         0.073559420
       122           12.200000         2.673029110       625.936096366         2.185138411         4.858167521         0.073253468
       123           12.300000         2.673006087       625.930705150         2.185163545         4.858169632         0.073380250
       124           12.400000         2.669736774       625.165138822         2.188437600         4.858174374         0.073445505
       125           12.500000         2.663301547       623.658219049         2.194880128         4.858181675         0.073546816
       126           12.600000         2.653821655       621.438337939         2.204369750         4.858191405         0.073236063
       127           12.700000         2.641457513       618.543059802         2.216745934         4.858203448         0.073896932
       128           12.800000         2.626406448       615.018591963         2.231811177         4.858217625         0.073243545
       129           12.900000         2.608899911       610.919132884         2.249333833         4.858233744         0.073244835
       130           13.000000         2.589200303       606.306128304         2.269051264         4.858251567         0.073308660
       131           13.100000         2.567597465       601.247449338         2.290673397         4.858270862         0.073450716
       132           13.200000         2.544404744       595.816471738         2.313886627         4.858291371         0.073229833
       133           13.300000         2.519954794       590.091092084         2.338358003         4.858312797         0.073141686
       134           13.400000         2.494595192       584.152701936         2.363739697         4.858334890         0.073320618
       135           13.500000         2.468683793       578.085098647         2.389673519         4.858357313         0.073312076
       136           13.600000         2.442583955       571.973369168         2.415795835         4.858379790         0.073583823
       137           13.700000         2.416659773       565.902772568         2.441742236         4.858402009         0.073203158
       138           13.800000         2.391271256       559.957611268         2.467152426         4.858423682         0.073282398
       139           13.900000         2.366769522       554.220105604         2.491674988         4.858444510         0.073365677
       140           14.000000         2.343492213       548.769320267         2.514972007         4.858464220         0.073179607
       141           14.100000         2.321759064       543.680126711         2.536723495         4.858482559         0.073151173
       142           14.200000         2.301867729       539.022225913         2.556631552         4.858499281         0.073351776
       143           14.300000         2.284089870       534.859232160         2.574424291         4.858514162         0.072923695
       144           14.400000         2.268667547       531.247827900         2.589859448         4.858526995         0.073237483
       145           14.500000         2.255810066       528.237025891         2.602727556         4.858537622         0.073202151
       146           14.600000         2.245691233       525.867525791         2.612854662         4.858545895         0.073491057
       147           14.700000         2.238447094       524.171185028         2.620104611         4.858551705         0.073298852
       148           14.800000         2.234174202       523.170613170         2.624380779         4.858554981         0.160696384
       149           14.900000         2.232928335       522.878871949         2.625627331         4.858555666         0.073322048
       150           15.000000         2.234723774       523.299305104         2.623829991         4.858553765         0.073219730
       151           15.100000         2.239533167       524.425507734         2.619016128         4.858549295         0.073213412
       152           15.200000         2.247287916       526.241416611         2.611254404         4.858542320         0.072963023
       153           15.300000         2.257879107       528.721527666         2.600653817         4.858532924         0.072434323
       154           15.400000         2.271158943       531.831231509         2.587362299         4.858521243         0.072946139
       155           15.500000         2.286942736       535.527280157         2.571564686         4.858507423         0.073553222
       156           15.600000         2.305011385       539.758367357         2.553480263         4.858491648         0.073510373
       157           15.700000         2.325114266       544.465805438         2.533359846         4.858474111         0.073510556
       158           15.800000         2.346972549       549.584301209         2.511482519         4.858455068         0.073557128
       159           15.900000         2.370282843       555.042810669         2.488151925         4.858434768         0.073390322
       160           16.000000         2.394721270       560.765491886         2.463692200         4.858413470         0.073669233
       161           16.100000         2.419947745       566.672708207         2.438443712         4.858391456         0.073201876
       162           16.200000         2.445610461       572.682078111         2.412758562         4.858369023         0.073375869
       163           16.300000         2.471350557       578.709567682         2.386995913         4.858346470         0.073186044
       164           16.400000         2.496806797       584.670587480         2.361517291         4.858324088         0.073456497
       165           16.500000         2.521620413       590.481125682         2.336681755         4.858302167         0.073100892
       166           16.600000         2.545439856       596.058861120         2.312841145         4.858281001         0.073100312
       167           16.700000         2.567925377       601.324235691         2.290335508         4.858260885         0.073063816
       168           16.800000         2.588753528       606.201508103         2.269488532         4.858242060         0.073957573
       169           16.900000         2.607621467       610.619763067         2.250603331         4.858224798         0.073365235
       170           17.000000         2.624250995       614.513855372         2.233958347         4.858209342         0.073523941
       171           17.100000         2.638392266       617.825279020         2.219803616         4.858195882         0.073244210
       172           17.200000         2.649827096       620.502942751         2.208357510         4.858184607         0.073965372
       173           17.300000         2.658371905       622.503857806         2.199803755         4.858175660         0.073675102
       174           17.400000         2.663880215       623.793724157         2.194288958         4.858169174         0.073561186
       175           17.500000         2.666244604       624.347386771         2.191920639         4.858165243         0.073653700
       176           17.600000         2.665398268       624.149202504         2.192765653         4.858163921         0.073668325
       177           17.700000         2.661316005       623.193269932         2.196849244         4.858165249         0.073417902
       178           17.800000         2.654014588       621.483516471         2.204154615         4.858169203         0.073400094
       179           17.900000         2.643552760       619.033698196         2.214622979         4.858175739         0.073872582
       180           18.000000         2.630030646       615.867260807         2.228154158         4.858184804         0.073141074
       181           18.100000         2.613588543       612.017057401         2.244607729         4.858196272         0.073230954
       182           18.200000         2.594405252       607.524957312         2.263804775         4.858210027         0.073627929
       183           18.300000         2.572695964       602.441351222         2.285529939         4.858225903         0.073575101
       184           18.400000         2.548709580       596.824523626         2.309534121         4.858243701         0.073295910
       185           18.500000         2.522725665       590.739939675         2.335537534         4.858263199         0.073324178
       186           18.600000         2.495051011       584.259439796         2.363233155         4.858284166         0.073575129
       187           18.700000         2.466015806       577.460343246         2.392290526         4.858306332         0.073184637
       188           18.800000         2.435969586       570.424499978         2.422359840         4.858329426         0.073441603
       189           18.900000         2.405276798       563.237251649         2.453076372         4.858353170         0.073388954
       190           19.000000         2.374312271       555.986371156         2.484065012         4.858377283         0.073379787
       191           19.100000         2.343456606       548.760982317         2.514944834         4.858401440         0.073168897
       192           19.200000         2.313091354       541.650432314         2.545333999         4.858425354         0.073372992
       193           19.300000         2.283594224       534.743167897         2.574854503         4.858448727         0.073274918
       194           19.400000         2.255334407       528.125642035         2.603136860         4.858471267         0.073453954
       195           19.500000         2.228667943       521.881227355         2.629824756         4.858492699         0.073396074
       196           19.600000         2.203933238       516.089167446         2.654579511         4.858512750         0.072996559
       197           19.700000         2.181446825       510.823584065         2.677084352         4.858531177         0.073573483
       198           19.800000         2.161499374       506.152542644         2.697048369         4.858547743         0.073250007
       199           19.900000         2.144352012       502.137190728         2.714210231         4.858562244         0.073749355
       200           20.000000         2.130233069       498.830995501         2.728341429         4.858574499         0.073502649
