#     Step Nr.          Time[fs]        Kin.[a.u.]          Temp[K]            Pot.[a.u.]        Cons Qty[a.u.]        UsedTime[s]
         0            0.000000         0.000000000         0.000000000         0.000000000         0.000000000         0.000000000
         1            0.100000         0.000000000         0.000000000         0.000000000         0.000000000         0.717930300
         2            0.200000         0.000000000         0.000000000         0.000000000         0.000000000         0.248873917
         3            0.300000         0.000000000         0.000000000         0.000000000         0.000000000         0.201512691
         4            0.400000         0.000000000         0.000000000         0.000000000         0.000000000         0.196239879
         5            0.500000         0.000000000         0.000000000         0.000000000         0.000000000         0.192516599
         6            0.600000         0.000000000         0.000000000         0.000000000         0.000000000         0.207202554
         7            0.700000         0.000000000         0.000000000         0.000000000         0.000000000         0.195408519
         8            0.800000         0.000000000         0.000000000         0.000000000         0.000000000         0.190343169
         9            0.900000         0.000000000         0.000000000         0.000000000         0.000000000         0.186925115
        10            1.000000         0.000000000         0.000000000         0.000000000         0.000000000         0.360447602
        11            1.100000         0.000000000         0.000000000         0.000000000         0.000000000         0.318292316
        12            1.200000         0.000000000         0.000000000         0.000000000         0.000000000         0.250903824
        13            1.300000         0.000000000         0.000000000         0.000000000         0.000000000         0.201756742
        14            1.400000         0.000000000         0.000000000         0.000000000         0.000000000         0.179955896
        15            1.500000         0.000000000         0.000000000         0.000000000         0.000000000         0.176995400
        16            1.600000         0.000000000         0.000000000         0.000000000         0.000000000         0.197537437
        17            1.700000         0.000000000         0.000000000         0.000000000         0.000000000         0.168948535
        18            1.800000         0.000000000         0.000000000         0.000000000         0.000000000         0.193761671
        19            1.900000         0.000000000         0.000000000         0.000000000         0.000000000         0.200573076
        20            2.000000         0.000000000         0.000000000         0.000000000         0.000000000         0.243192680
        21            2.100000         0.000000000         0.000000000         0.000000000         0.000000000         0.239843145
        22            2.200000         0.000000000         0.000000000         0.000000000         0.000000000         0.172432764
        23            2.300000         0.000000000         0.000000000         0.000000000         0.000000000         0.237875611
        24            2.400000         0.000000000         0.000000000         0.000000000         0.000000000         0.270647973
        25            2.500000         0.000000000         0.000000000         0.000000000         0.000000000         0.276486063
        26            2.600000         0.000000000         0.000000000         0.000000000         0.000000000         0.178682154
        27            2.700000         0.000000000         0.000000000         0.000000000         0.000000000         0.126769159
        28            2.800000         0.000000000         0.000000000         0.000000000         0.000000000         0.168439072
        29            2.900000         0.000000000         0.000000000         0.000000000         0.000000000         0.095264625
        30            3.000000         0.000000000         0.000000000         0.000000000         0.000000000         0.167539593
        31            3.100000         0.000000000         0.000000000         0.000000000         0.000000000         0.237721793
        32            3.200000         0.000000000         0.000000000         0.000000000         0.000000000         0.183753913
        33            3.300000         0.000000000         0.000000000         0.000000000         0.000000000         0.173080925
        34            3.400000         0.000000000         0.000000000         0.000000000         0.000000000         0.179596268
        35            3.500000         0.000000000         0.000000000         0.000000000         0.000000000         0.180916745
        36            3.600000         0.000000000         0.000000000         0.000000000         0.000000000         0.180126835
        37            3.700000         0.000000000         0.000000000         0.000000000         0.000000000         0.177948739
        38            3.800000         0.000000000         0.000000000         0.000000000         0.000000000         0.195758272
        39            3.900000         0.000000000         0.000000000         0.000000000         0.000000000         0.170364352
        40            4.000000         0.000000000         0.000000000         0.000000000         0.000000000         0.198574988
        41            4.100000         0.000000000         0.000000000         0.000000000         0.000000000         0.186251679
        42            4.200000         0.000000000         0.000000000         0.000000000         0.000000000         0.170499088
        43            4.300000         0.000000000         0.000000000         0.000000000         0.000000000         0.181195818
        44            4.400000         0.000000000         0.000000000         0.000000000         0.000000000         0.189485570
        45            4.500000         0.000000000         0.000000000         0.000000000         0.000000000         0.162856873
        46            4.600000         0.000000000         0.000000000         0.000000000         0.000000000         0.180413919
        47            4.700000         0.000000000         0.000000000         0.000000000         0.000000000         0.201352773
        48            4.800000         0.000000000         0.000000000         0.000000000         0.000000000         0.207981994
        49            4.900000         0.000000000         0.000000000         0.000000000         0.000000000         0.206329430
        50            5.000000         0.000000000         0.000000000         0.000000000         0.000000000         0.207934683
        51            5.100000         0.000000000         0.000000000         0.000000000         0.000000000         0.220111966
        52            5.200000         0.000000000         0.000000000         0.000000000         0.000000000         0.214843107
        53            5.300000         0.000000000         0.000000000         0.000000000         0.000000000         0.205229292
        54            5.400000         0.000000000         0.000000000         0.000000000         0.000000000         0.208934478
        55            5.500000         0.000000000         0.000000000         0.000000000         0.000000000         0.203358168
        56            5.600000         0.000000000         0.000000000         0.000000000         0.000000000         0.175296163
        57            5.700000         0.000000000         0.000000000         0.000000000         0.000000000         0.190778233
        58            5.800000         0.000000000         0.000000000         0.000000000         0.000000000         0.176457496
        59            5.900000         0.000000000         0.000000000         0.000000000         0.000000000         0.172430294
        60            6.000000         0.000000000         0.000000000         0.000000000         0.000000000         0.177083950
        61            6.100000         0.000000000         0.000000000         0.000000000         0.000000000         0.191406572
        62            6.200000         0.000000000         0.000000000         0.000000000         0.000000000         0.187767459
        63            6.300000         0.000000000         0.000000000         0.000000000         0.000000000         0.190466201
        64            6.400000         0.000000000         0.000000000         0.000000000         0.000000000         0.167608883
        65            6.500000         0.000000000         0.000000000         0.000000000         0.000000000         0.189715108
        66            6.600000         0.000000000         0.000000000         0.000000000         0.000000000         0.159306969
        67            6.700000         0.000000000         0.000000000         0.000000000         0.000000000         0.162649704
        68            6.800000         0.000000000         0.000000000         0.000000000         0.000000000         0.166680243
        69            6.900000         0.000000000         0.000000000         0.000000000         0.000000000         0.141763592
        70            7.000000         0.000000000         0.000000000         0.000000000         0.000000000         0.164882012
        71            7.100000         0.000000000         0.000000000         0.000000000         0.000000000         0.165828021
        72            7.200000         0.000000000         0.000000000         0.000000000         0.000000000         0.152699372
        73            7.300000         0.000000000         0.000000000         0.000000000         0.000000000         0.152429035
        74            7.400000         0.000000000         0.000000000         0.000000000         0.000000000         0.141218893
        75            7.500000         0.000000000         0.000000000         0.000000000         0.000000000         0.164519597
        76            7.600000         0.000000000         0.000000000         0.000000000         0.000000000         0.166320758
        77            7.700000         0.000000000         0.000000000         0.000000000         0.000000000         0.139674891
        78            7.800000         0.000000000         0.000000000         0.000000000         0.000000000         0.166357178
        79            7.900000         0.000000000         0.000000000         0.000000000         0.000000000         0.153967187
        80            8.000000         0.000000000         0.000000000         0.000000000         0.000000000         0.153018497
        81            8.100000         0.000000000         0.000000000         0.000000000         0.000000000         0.164735768
        82            8.200000         0.000000000         0.000000000         0.000000000         0.000000000         0.141205361
        83            8.300000         0.000000000         0.000000000         0.000000000         0.000000000         0.164240595
        84            8.400000         0.000000000         0.000000000         0.000000000         0.000000000         0.154226704
        85            8.500000         0.000000000         0.000000000         0.000000000         0.000000000         0.126700943
        86            8.600000         0.000000000         0.000000000         0.000000000         0.000000000         0.104442585
        87            8.700000         0.000000000         0.000000000         0.000000000         0.000000000         0.162923183
        88            8.800000         0.000000000         0.000000000         0.000000000         0.000000000         0.117750809
        89            8.900000         0.000000000         0.000000000         0.000000000         0.000000000         0.111702496
        90            9.000000         0.000000000         0.000000000         0.000000000         0.000000000         0.102761034
        91            9.100000         0.000000000         0.000000000         0.000000000         0.000000000         0.138171429
        92            9.200000         0.000000000         0.000000000         0.000000000         0.000000000         0.077101424
        93            9.300000         0.000000000         0.000000000         0.000000000         0.000000000         0.128731187
        94            9.400000         0.000000000         0.000000000         0.000000000         0.000000000         0.091107845
        95            9.500000         0.000000000         0.000000000         0.000000000         0.000000000         0.123655796
        96            9.600000         0.000000000         0.000000000         0.000000000         0.000000000         0.108448287
        97            9.700000         0.000000000         0.000000000         0.000000000         0.000000000         0.104551960
        98            9.800000         0.000000000         0.000000000         0.000000000         0.000000000         0.142100684
        99            9.900000         0.000000000         0.000000000         0.000000000         0.000000000         0.078486187
       100           10.000000         0.000000000         0.000000000         0.000000000         0.000000000         0.092361696
       101           10.100000         0.000000000         0.000000000         0.000000000         0.000000000         0.120503368
       102           10.200000         0.000000000         0.000000000         0.000000000         0.000000000         0.102047417
       103           10.300000         0.000000000         0.000000000         0.000000000         0.000000000         0.190455295
       104           10.400000         0.000000000         0.000000000         0.000000000         0.000000000         0.101398660
       105           10.500000         0.000000000         0.000000000         0.000000000         0.000000000         0.129390424
       106           10.600000         0.000000000         0.000000000         0.000000000         0.000000000         0.163311671
       107           10.700000         0.000000000         0.000000000         0.000000000         0.000000000         0.090316083
       108           10.800000         0.000000000         0.000000000         0.000000000         0.000000000         0.122825390
       109           10.900000         0.000000000         0.000000000         0.000000000         0.000000000         0.090133283
       110           11.000000         0.000000000         0.000000000         0.000000000         0.000000000         0.136181412
       111           11.100000         0.000000000         0.000000000         0.000000000         0.000000000         0.168402148
       112           11.200000         0.000000000         0.000000000         0.000000000         0.000000000         0.153312080
       113           11.300000         0.000000000         0.000000000         0.000000000         0.000000000         0.152247583
       114           11.400000         0.000000000         0.000000000         0.000000000         0.000000000         0.120064778
       115           11.500000         0.000000000         0.000000000         0.000000000         0.000000000         0.125907725
       116           11.600000         0.000000000         0.000000000         0.000000000         0.000000000         0.131067155
       117           11.700000         0.000000000         0.000000000         0.000000000         0.000000000         0.076754320
       118           11.800000         0.000000000         0.000000000         0.000000000         0.000000000         0.116992142
       119           11.900000         0.000000000         0.000000000         0.000000000         0.000000000         0.077381112
       120           12.000000         0.000000000         0.000000000         0.000000000         0.000000000         0.117131110
       121           12.100000         0.000000000         0.000000000         0.000000000         0.000000000         0.078593859
       122           12.200000         0.000000000         0.000000000         0.000000000         0.000000000         0.141870543
       123           12.300000         0.000000000         0.000000000         0.000000000         0.000000000         0.104203375
       124           12.400000         0.000000000         0.000000000         0.000000000         0.000000000         0.128134064
       125           12.500000         0.000000000         0.000000000         0.000000000         0.000000000         0.122185469
       126           12.600000         0.000000000         0.000000000         0.000000000         0.000000000         0.127427852
       127           12.700000         0.000000000         0.000000000         0.000000000         0.000000000         0.163229736
       128           12.800000         0.000000000         0.000000000         0.000000000         0.000000000         0.103896828
       129           12.900000         0.000000000         0.000000000         0.000000000         0.000000000         0.127849495
       130           13.000000         0.000000000         0.000000000         0.000000000         0.000000000         0.090501692
       131           13.100000         0.000000000         0.000000000         0.000000000         0.000000000         0.148831280
       132           13.200000         0.000000000         0.000000000         0.000000000         0.000000000         0.139893744
       133           13.300000         0.000000000         0.000000000         0.000000000         0.000000000         0.077109147
       134           13.400000         0.000000000         0.000000000         0.000000000         0.000000000         0.148421086
       135           13.500000         0.000000000         0.000000000         0.000000000         0.000000000         0.160090568
       136           13.600000         0.000000000         0.000000000         0.000000000         0.000000000         0.155049639
       137           13.700000         0.000000000         0.000000000         0.000000000         0.000000000         0.103447787
       138           13.800000         0.000000000         0.000000000         0.000000000         0.000000000         0.090910185
       139           13.900000         0.000000000         0.000000000         0.000000000         0.000000000         0.102936914
       140           14.000000         0.000000000         0.000000000         0.000000000         0.000000000         0.089679426
       141           14.100000         0.000000000         0.000000000         0.000000000         0.000000000         0.077470887
       142           14.200000         0.000000000         0.000000000         0.000000000         0.000000000         0.115173884
       143           14.300000         0.000000000         0.000000000         0.000000000         0.000000000         0.150998881
       144           14.400000         0.000000000         0.000000000         0.000000000         0.000000000         0.129504025
       145           14.500000         0.000000000         0.000000000         0.000000000         0.000000000         0.102992188
       146           14.600000         0.000000000         0.000000000         0.000000000         0.000000000         0.140836783
       147           14.700000         0.000000000         0.000000000         0.000000000         0.000000000         0.076977843
       148           14.800000         0.000000000         0.000000000         0.000000000         0.000000000         0.077427583
       149           14.900000         0.000000000         0.000000000         0.000000000         0.000000000         0.127013262
       150           15.000000         0.000000000         0.000000000         0.000000000         0.000000000         0.162163666
       151           15.100000         0.000000000         0.000000000         0.000000000         0.000000000         0.127354858
       152           15.200000         0.000000000         0.000000000         0.000000000         0.000000000         0.075608047
       153           15.300000         0.000000000         0.000000000         0.000000000         0.000000000         0.115248200
       154           15.400000         0.000000000         0.000000000         0.000000000         0.000000000         0.076256601
       155           15.500000         0.000000000         0.000000000         0.000000000         0.000000000         0.115580421
       156           15.600000         0.000000000         0.000000000         0.000000000         0.000000000         0.076374147
       157           15.700000         0.000000000         0.000000000         0.000000000         0.000000000         0.113409920
       158           15.800000         0.000000000         0.000000000         0.000000000         0.000000000         0.150271302
       159           15.900000         0.000000000         0.000000000         0.000000000         0.000000000         0.156788578
       160           16.000000         0.000000000         0.000000000         0.000000000         0.000000000         0.076156536
       161           16.100000         0.000000000         0.000000000         0.000000000         0.000000000         0.151725903
       162           16.200000         0.000000000         0.000000000         0.000000000         0.000000000         0.127738561
       163           16.300000         0.000000000         0.000000000         0.000000000         0.000000000         0.124398375
       164           16.400000         0.000000000         0.000000000         0.000000000         0.000000000         0.085668212
       165           16.500000         0.000000000         0.000000000         0.000000000         0.000000000         0.123697652
       166           16.600000         0.000000000         0.000000000         0.000000000         0.000000000         0.087817686
       167           16.700000         0.000000000         0.000000000         0.000000000         0.000000000         0.076694475
       168           16.800000         0.000000000         0.000000000         0.000000000         0.000000000         0.100761091
       169           16.900000         0.000000000         0.000000000         0.000000000         0.000000000         0.148813009
       170           17.000000         0.000000000         0.000000000         0.000000000         0.000000000         0.135852655
       171           17.100000         0.000000000         0.000000000         0.000000000         0.000000000         0.076728446
       172           17.200000         0.000000000         0.000000000         0.000000000         0.000000000         0.076638002
       173           17.300000         0.000000000         0.000000000         0.000000000         0.000000000         0.076421920
       174           17.400000         0.000000000         0.000000000         0.000000000         0.000000000         0.076882044
       175           17.500000         0.000000000         0.000000000         0.000000000         0.000000000         0.076658027
       176           17.600000         0.000000000         0.000000000         0.000000000         0.000000000         0.076554419
       177           17.700000         0.000000000         0.000000000         0.000000000         0.000000000         0.114744704
       178           17.800000         0.000000000         0.000000000         0.000000000         0.000000000         0.076950645
       179           17.900000         0.000000000         0.000000000         0.000000000         0.000000000         0.076166816
       180           18.000000         0.000000000         0.000000000         0.000000000         0.000000000         0.114281308
       181           18.100000         0.000000000         0.000000000         0.000000000         0.000000000         0.102600919
       182           18.200000         0.000000000         0.000000000         0.000000000         0.000000000         0.146382844
       183           18.300000         0.000000000         0.000000000         0.000000000         0.000000000         0.097554568
       184           18.400000         0.000000000         0.000000000         0.000000000         0.000000000         0.149200125
       185           18.500000         0.000000000         0.000000000         0.000000000         0.000000000         0.116333632
       186           18.600000         0.000000000         0.000000000         0.000000000         0.000000000         0.076808935
       187           18.700000         0.000000000         0.000000000         0.000000000         0.000000000         0.102274684
       188           18.800000         0.000000000         0.000000000         0.000000000         0.000000000         0.090377567
       189           18.900000         0.000000000         0.000000000         0.000000000         0.000000000         0.116232244
       190           19.000000         0.000000000         0.000000000         0.000000000         0.000000000         0.076947032
       191           19.100000         0.000000000         0.000000000         0.000000000         0.000000000         0.115273291
       192           19.200000         0.000000000         0.000000000         0.000000000         0.000000000         0.076691205
       193           19.300000         0.000000000         0.000000000         0.000000000         0.000000000         0.101335693
       194           19.400000         0.000000000         0.000000000         0.000000000         0.000000000         0.089921096
       195           19.500000         0.000000000         0.000000000         0.000000000         0.000000000         0.076943684
       196           19.600000         0.000000000         0.000000000         0.000000000         0.000000000         0.077070318
       197           19.700000         0.000000000         0.000000000         0.000000000         0.000000000         0.076536117
       198           19.800000         0.000000000         0.000000000         0.000000000         0.000000000         0.076503305
       199           19.900000         0.000000000         0.000000000         0.000000000         0.000000000         0.076557316
       200           20.000000         0.000000000         0.000000000         0.000000000         0.000000000         0.076362880
