 DBCSR| Multiplication driver                                               XSMM
 DBCSR| Multrec recursion limit                                              512
 DBCSR| Multiplication stack size                                           1000
 DBCSR| Maximum elements for images                                    UNLIMITED
 DBCSR| Randmat seed                                                    12341313
 DBCSR| Multiplication size stacks                                             3


  **** **** ******  **  PROGRAM STARTED AT               2021-04-29 14:23:29.598
 ***** ** ***  *** **   PROGRAM STARTED ON               bulstake.phys.ucl.ac.uk
 **    ****   ******    PROGRAM STARTED BY                             sgiannini
 ***** **    ** ** **   PROGRAM PROCESS ID                                 12994
  **** **  *******  **  PROGRAM STARTED IN /scratch/sgiannini/REG_TEST_MERGING/3
                                           7-071a0540f1_code_extension_V3_ADJ/ru
                                           n-fssh-MTS1_FROZEN_H

 CP2K| version string:                    CP2K version 4.0 (Development Version)
 CP2K| source code revision number:                                  git:1080fc1
 CP2K| cp2kflags: libint fftw3 libxc quip smm_dnn smm libxsmm libderiv_max_am1=5
 CP2K|             libint_max_am=6
 CP2K| is freely available from                            https://www.cp2k.org/
 CP2K| Program compiled at                          Thu 29 Apr 10:11:08 BST 2021
 CP2K| Program compiled on                               bulstake.phys.ucl.ac.uk
 CP2K| Program compiled for                                         local_hetero
 CP2K| Data directory path           /scratch/sgiannini/flavoured-cptk/cp2k/data
 CP2K| Input file name                                                   run.inp

 GLOBAL| Force Environment number                                              1
 GLOBAL| Basis set file name                                           POTENTIAL
 GLOBAL| MM Potential file name                                     MM_POTENTIAL
 GLOBAL| Coordinate file name                                       pos-init.xyz
 GLOBAL| Force Environment number                                              2
 GLOBAL| Basis set file name                                           POTENTIAL
 GLOBAL| MM Potential file name                                     MM_POTENTIAL
 GLOBAL| Coordinate file name                                       pos-init.xyz
 GLOBAL| Force Environment number                                              3
 GLOBAL| Basis set file name                                           POTENTIAL
 GLOBAL| MM Potential file name                                     MM_POTENTIAL
 GLOBAL| Coordinate file name                                       pos-init.xyz
 GLOBAL| Method name                                                        CP2K
 GLOBAL| Project name                                                        run
 GLOBAL| Preferred FFT library                                             FFTW3
 GLOBAL| Preferred diagonalization lib.                                       SL
 GLOBAL| Run type                                                             MD
 GLOBAL| All-to-all communication in single precision                          F
 GLOBAL| FFTs using library dependent lengths                                  F
 GLOBAL| Global print level                                                  LOW
 GLOBAL| Total number of message passing processes                             1
 GLOBAL| Number of threads for this process                                    1
 GLOBAL| This output is from process                                           0
 GLOBAL| CPU model name :  Intel(R) Xeon(R) CPU E5-2687W v4 @ 3.00GHz

 MEMORY| system memory details [Kb]
 MEMORY|                        rank 0           min           max       average
 MEMORY| MemTotal             65894336      65894336      65894336      65894336
 MEMORY| MemFree               6936680       6936680       6936680       6936680
 MEMORY| Buffers                  8744          8744          8744          8744
 MEMORY| Cached               40779116      40779116      40779116      40779116
 MEMORY| Slab                  3236700       3236700       3236700       3236700
 MEMORY| SReclaimable          2479316       2479316       2479316       2479316
 MEMORY| MemLikelyFree        50203856      50203856      50203856      50203856

 TOTAL NUMBER OF FORCE EVALS           3
 NOTE:n_subforce_eval           2
 DECOMP =  T
 DECOMP =  T

 MD| Molecular Dynamics Protocol 
 MD| Ensemble Type                                                           NVE
 MD| Number of Time Steps                                                    200
 MD| Time Step [fs]                                                         0.10
 MD| Temperature [K]                                                      400.00
 MD| Temperature tolerance [K]                                              0.00
 MD| Print MD information every                                        1 step(s)
 MD| File type     Print frequency[steps]                             File names
 MD| Coordinates          200                                      run-pos-1.xyz
 MD| Velocities             1                                      run-vel-1.xyz
 MD| Energies               1                                         run-1.ener
 MD| Dump                 200                                      run-1.restart

 ROT| Rotational Analysis Info 
 ROT| Principal axes and moments of inertia in atomic units:
 ROT|                                1                 2                 3
 ROT| EIGENVALUES            0.319196005E+10   0.583971964E+10   0.882037602E+10
 ROT|      X                     0.997631408       0.066105605       0.019016393
 ROT|      Y                     0.066118536      -0.997811774      -0.000051363
 ROT|      Z                    -0.018971385      -0.001308578       0.999819171
 ROT| Numer of Rotovibrational vectors:     6

 Calculation of degrees of freedom
                                                      Number of atoms:       900
                                 Number of Intramolecular constraints:         0
                                 Number of Intermolecular constraints:         0
                                  Invariants(translation + rotations):         3
                                                   Degrees of freedom:      2697


 Restraints Information
                                  Number of Intramolecular restraints:         0
                                  Number of Intermolecular restraints:         0

 *** WARNING in motion/thermostat/thermostat_methods.F:280 :: Thermostat ***
 *** for Particles has been defined but the ensemble provided does not   ***
 *** support thermostat for Particles! Ignoring thermostat input.        ***

 ************************** Velocities initialization **************************
 Initial Temperature                                                    564.84 K
 COM velocity:           -0.000000000004     -0.000000000000      0.000000000001
 *******************************************************************************

 FIRST CALL: force_env_calc_energy_force
 RESTART_KEY F
 FOB-SH: ALLOCATION OF S MATRICES
 ACTIVE STATE           3
 FOBSH| ACTIVE STATE =            3

 ENERGY| Total FORCE_EVAL ( MIXED ) energy (a.u.):             0.000000000000000

 STEP NUMBER                  =            0
 CPU TIME [s]                 =    0.0000000000000000        0.0000000000000000     

 MD_ENERGIES| Initialization proceeding


 ******************************** GO CP2K GO! **********************************
 INITIAL POTENTIAL ENERGY[hartree]     =                      0.000000000000E+00
 INITIAL KINETIC ENERGY[hartree]       =                      0.000000000000E+00
 INITIAL TEMPERATURE[K]                =                                   0.000
 INITIAL VOLUME[bohr^3]                =                      0.580604601118E+05
 INITIAL CELL LNTHS[bohr]   =      0.7651501E+02   0.5624770E+02   0.1634991E+02
 INITIAL CELL ANGLS[deg]    =      0.9000000E+02   0.1244000E+03   0.9000000E+02
 ******************************** GO CP2K GO! **********************************
 FOBSH| *** OFF-DIAGONAL GRADIENT CALCULATION
 FOBSH| Put former active state           3 in new active state           3
 FOBSH| ACTIVE STATE =            3

 ENERGY| Total FORCE_EVAL ( MIXED ) energy (a.u.):             0.000000000000000

 FOBSH| CASE1: no hop and no trivial crossing
 ENTER integrator.F
 STEP NUMBER                  =            1
 CPU TIME [s]                 =   0.71793030016124249       0.71793030016124249     

 *******************************************************************************
 ENSEMBLE TYPE                =                                              NVE
 STEP NUMBER                  =                                                1
 TIME [fs]                    =                                         0.100000
 CONSERVED QUANTITY [hartree] =                               0.000000000000E+00

                                              INSTANTANEOUS             AVERAGES
 CPU TIME [s]                 =                        0.72                 0.72
 ENERGY DRIFT PER ATOM [K]    =          0.000000000000E+00   0.000000000000E+00
 POTENTIAL ENERGY[hartree]    =          0.000000000000E+00   0.000000000000E+00
 KINETIC ENERGY [hartree]     =          0.000000000000E+00   0.000000000000E+00
 TEMPERATURE [K]              =                       0.000                0.000
 *******************************************************************************

 FOBSH| *** OFF-DIAGONAL GRADIENT CALCULATION
 FOBSH| Put former active state           3 in new active state           3
 FOBSH| ACTIVE STATE =            3

 ENERGY| Total FORCE_EVAL ( MIXED ) energy (a.u.):             0.000000000000000

 FOBSH| CASE1: no hop and no trivial crossing
 ENTER integrator.F
 STEP NUMBER                  =            2
 CPU TIME [s]                 =   0.24887391738593578       0.48340210877358913     

 *******************************************************************************
 ENSEMBLE TYPE                =                                              NVE
 STEP NUMBER                  =                                                2
 TIME [fs]                    =                                         0.200000
 CONSERVED QUANTITY [hartree] =                               0.000000000000E+00

                                              INSTANTANEOUS             AVERAGES
 CPU TIME [s]                 =                        0.25                 0.48
 ENERGY DRIFT PER ATOM [K]    =          0.000000000000E+00   0.000000000000E+00
 POTENTIAL ENERGY[hartree]    =          0.000000000000E+00   0.000000000000E+00
 KINETIC ENERGY [hartree]     =          0.000000000000E+00   0.000000000000E+00
 TEMPERATURE [K]              =                       0.000                0.000
 *******************************************************************************

 FOBSH| *** OFF-DIAGONAL GRADIENT CALCULATION
 FOBSH| Put former active state           3 in new active state           3
 FOBSH| ACTIVE STATE =            3

 ENERGY| Total FORCE_EVAL ( MIXED ) energy (a.u.):             0.000000000000000

 FOBSH| CASE1: no hop and no trivial crossing
 ENTER integrator.F
 STEP NUMBER                  =            3
 CPU TIME [s]                 =   0.20151269063353539       0.38943896939357120     

 *******************************************************************************
 ENSEMBLE TYPE                =                                              NVE
 STEP NUMBER                  =                                                3
 TIME [fs]                    =                                         0.300000
 CONSERVED QUANTITY [hartree] =                               0.000000000000E+00

                                              INSTANTANEOUS             AVERAGES
 CPU TIME [s]                 =                        0.20                 0.39
 ENERGY DRIFT PER ATOM [K]    =          0.000000000000E+00   0.000000000000E+00
 POTENTIAL ENERGY[hartree]    =          0.000000000000E+00   0.000000000000E+00
 KINETIC ENERGY [hartree]     =          0.000000000000E+00   0.000000000000E+00
 TEMPERATURE [K]              =                       0.000                0.000
 *******************************************************************************

 FOBSH| *** OFF-DIAGONAL GRADIENT CALCULATION
 FOBSH| Put former active state           3 in new active state           3
 FOBSH| ACTIVE STATE =            3

 ENERGY| Total FORCE_EVAL ( MIXED ) energy (a.u.):             0.000000000000000

 FOBSH| CASE1: no hop and no trivial crossing
 ENTER integrator.F
 STEP NUMBER                  =            4
 CPU TIME [s]                 =   0.19623987935483456       0.34113919688388705     

 *******************************************************************************
 ENSEMBLE TYPE                =                                              NVE
 STEP NUMBER                  =                                                4
 TIME [fs]                    =                                         0.400000
 CONSERVED QUANTITY [hartree] =                               0.000000000000E+00

                                              INSTANTANEOUS             AVERAGES
 CPU TIME [s]                 =                        0.20                 0.34
 ENERGY DRIFT PER ATOM [K]    =          0.000000000000E+00   0.000000000000E+00
 POTENTIAL ENERGY[hartree]    =          0.000000000000E+00   0.000000000000E+00
 KINETIC ENERGY [hartree]     =          0.000000000000E+00   0.000000000000E+00
 TEMPERATURE [K]              =                       0.000                0.000
 *******************************************************************************

 FOBSH| *** OFF-DIAGONAL GRADIENT CALCULATION
 FOBSH| Put former active state           3 in new active state           3
 FOBSH| ACTIVE STATE =            3

 ENERGY| Total FORCE_EVAL ( MIXED ) energy (a.u.):             0.000000000000000

 FOBSH| CASE1: no hop and no trivial crossing
 ENTER integrator.F
 STEP NUMBER                  =            5
 CPU TIME [s]                 =   0.19251659885048866       0.31141467727720740     

 *******************************************************************************
 ENSEMBLE TYPE                =                                              NVE
 STEP NUMBER                  =                                                5
 TIME [fs]                    =                                         0.500000
 CONSERVED QUANTITY [hartree] =                               0.000000000000E+00

                                              INSTANTANEOUS             AVERAGES
 CPU TIME [s]                 =                        0.19                 0.31
 ENERGY DRIFT PER ATOM [K]    =          0.000000000000E+00   0.000000000000E+00
 POTENTIAL ENERGY[hartree]    =          0.000000000000E+00   0.000000000000E+00
 KINETIC ENERGY [hartree]     =          0.000000000000E+00   0.000000000000E+00
 TEMPERATURE [K]              =                       0.000                0.000
 *******************************************************************************

 FOBSH| *** OFF-DIAGONAL GRADIENT CALCULATION
 FOBSH| Put former active state           3 in new active state           3
 FOBSH| ACTIVE STATE =            3

 ENERGY| Total FORCE_EVAL ( MIXED ) energy (a.u.):             0.000000000000000

 FOBSH| CASE1: no hop and no trivial crossing
 ENTER integrator.F
 STEP NUMBER                  =            6
 CPU TIME [s]                 =   0.20720255374908447       0.29404599002252019     

 *******************************************************************************
 ENSEMBLE TYPE                =                                              NVE
 STEP NUMBER                  =                                                6
 TIME [fs]                    =                                         0.600000
 CONSERVED QUANTITY [hartree] =                               0.000000000000E+00

                                              INSTANTANEOUS             AVERAGES
 CPU TIME [s]                 =                        0.21                 0.29
 ENERGY DRIFT PER ATOM [K]    =          0.000000000000E+00   0.000000000000E+00
 POTENTIAL ENERGY[hartree]    =          0.000000000000E+00   0.000000000000E+00
 KINETIC ENERGY [hartree]     =          0.000000000000E+00   0.000000000000E+00
 TEMPERATURE [K]              =                       0.000                0.000
 *******************************************************************************

 FOBSH| *** OFF-DIAGONAL GRADIENT CALCULATION
 FOBSH| Put former active state           3 in new active state           3
 FOBSH| ACTIVE STATE =            3

 ENERGY| Total FORCE_EVAL ( MIXED ) energy (a.u.):             0.000000000000000

 FOBSH| CASE1: no hop and no trivial crossing
 ENTER integrator.F
 STEP NUMBER                  =            7
 CPU TIME [s]                 =   0.19540851935744286       0.27995492278465200     

 *******************************************************************************
 ENSEMBLE TYPE                =                                              NVE
 STEP NUMBER                  =                                                7
 TIME [fs]                    =                                         0.700000
 CONSERVED QUANTITY [hartree] =                               0.000000000000E+00

                                              INSTANTANEOUS             AVERAGES
 CPU TIME [s]                 =                        0.20                 0.28
 ENERGY DRIFT PER ATOM [K]    =          0.000000000000E+00   0.000000000000E+00
 POTENTIAL ENERGY[hartree]    =          0.000000000000E+00   0.000000000000E+00
 KINETIC ENERGY [hartree]     =          0.000000000000E+00   0.000000000000E+00
 TEMPERATURE [K]              =                       0.000                0.000
 *******************************************************************************

 FOBSH| *** OFF-DIAGONAL GRADIENT CALCULATION
 FOBSH| Put former active state           3 in new active state           3
 FOBSH| ACTIVE STATE =            3

 ENERGY| Total FORCE_EVAL ( MIXED ) energy (a.u.):             0.000000000000000

 FOBSH| CASE1: no hop and no trivial crossing
 ENTER integrator.F
 STEP NUMBER                  =            8
 CPU TIME [s]                 =   0.19034316949546337       0.26875345362350345     

 *******************************************************************************
 ENSEMBLE TYPE                =                                              NVE
 STEP NUMBER                  =                                                8
 TIME [fs]                    =                                         0.800000
 CONSERVED QUANTITY [hartree] =                               0.000000000000E+00

                                              INSTANTANEOUS             AVERAGES
 CPU TIME [s]                 =                        0.19                 0.27
 ENERGY DRIFT PER ATOM [K]    =          0.000000000000E+00   0.000000000000E+00
 POTENTIAL ENERGY[hartree]    =          0.000000000000E+00   0.000000000000E+00
 KINETIC ENERGY [hartree]     =          0.000000000000E+00   0.000000000000E+00
 TEMPERATURE [K]              =                       0.000                0.000
 *******************************************************************************

 FOBSH| *** OFF-DIAGONAL GRADIENT CALCULATION
 FOBSH| Put former active state           3 in new active state           3
 FOBSH| ACTIVE STATE =            3

 ENERGY| Total FORCE_EVAL ( MIXED ) energy (a.u.):             0.000000000000000

 FOBSH| CASE1: no hop and no trivial crossing
 ENTER integrator.F
 STEP NUMBER                  =            9
 CPU TIME [s]                 =   0.18692511506378651       0.25966141600575710     

 *******************************************************************************
 ENSEMBLE TYPE                =                                              NVE
 STEP NUMBER                  =                                                9
 TIME [fs]                    =                                         0.900000
 CONSERVED QUANTITY [hartree] =                               0.000000000000E+00

                                              INSTANTANEOUS             AVERAGES
 CPU TIME [s]                 =                        0.19                 0.26
 ENERGY DRIFT PER ATOM [K]    =          0.000000000000E+00   0.000000000000E+00
 POTENTIAL ENERGY[hartree]    =          0.000000000000E+00   0.000000000000E+00
 KINETIC ENERGY [hartree]     =          0.000000000000E+00   0.000000000000E+00
 TEMPERATURE [K]              =                       0.000                0.000
 *******************************************************************************

 FOBSH| *** OFF-DIAGONAL GRADIENT CALCULATION
 FOBSH| Put former active state           3 in new active state           3
 FOBSH| ACTIVE STATE =            3

 ENERGY| Total FORCE_EVAL ( MIXED ) energy (a.u.):             0.000000000000000

 FOBSH| CASE1: no hop and no trivial crossing
 ENTER integrator.F
 STEP NUMBER                  =           10
 CPU TIME [s]                 =   0.36044760234653950       0.26974003463983537     

 *******************************************************************************
 ENSEMBLE TYPE                =                                              NVE
 STEP NUMBER                  =                                               10
 TIME [fs]                    =                                         1.000000
 CONSERVED QUANTITY [hartree] =                               0.000000000000E+00

                                              INSTANTANEOUS             AVERAGES
 CPU TIME [s]                 =                        0.36                 0.27
 ENERGY DRIFT PER ATOM [K]    =          0.000000000000E+00   0.000000000000E+00
 POTENTIAL ENERGY[hartree]    =          0.000000000000E+00   0.000000000000E+00
 KINETIC ENERGY [hartree]     =          0.000000000000E+00   0.000000000000E+00
 TEMPERATURE [K]              =                       0.000                0.000
 *******************************************************************************

 FOBSH| *** OFF-DIAGONAL GRADIENT CALCULATION
 FOBSH| Put former active state           3 in new active state           3
 FOBSH| ACTIVE STATE =            3

 ENERGY| Total FORCE_EVAL ( MIXED ) energy (a.u.):             0.000000000000000

 FOBSH| CASE1: no hop and no trivial crossing
 ENTER integrator.F
 STEP NUMBER                  =           11
 CPU TIME [s]                 =   0.31829231604933739       0.27415387840433553     

 *******************************************************************************
 ENSEMBLE TYPE                =                                              NVE
 STEP NUMBER                  =                                               11
 TIME [fs]                    =                                         1.100000
 CONSERVED QUANTITY [hartree] =                               0.000000000000E+00

                                              INSTANTANEOUS             AVERAGES
 CPU TIME [s]                 =                        0.32                 0.27
 ENERGY DRIFT PER ATOM [K]    =          0.000000000000E+00   0.000000000000E+00
 POTENTIAL ENERGY[hartree]    =          0.000000000000E+00   0.000000000000E+00
 KINETIC ENERGY [hartree]     =          0.000000000000E+00   0.000000000000E+00
 TEMPERATURE [K]              =                       0.000                0.000
 *******************************************************************************

 FOBSH| *** OFF-DIAGONAL GRADIENT CALCULATION
 FOBSH| Put former active state           3 in new active state           3
 FOBSH| ACTIVE STATE =            3

 ENERGY| Total FORCE_EVAL ( MIXED ) energy (a.u.):             0.000000000000000

 FOBSH| CASE1: no hop and no trivial crossing
 ENTER integrator.F
 STEP NUMBER                  =           12
 CPU TIME [s]                 =   0.25090382434427738       0.27221637389933068     

 *******************************************************************************
 ENSEMBLE TYPE                =                                              NVE
 STEP NUMBER                  =                                               12
 TIME [fs]                    =                                         1.200000
 CONSERVED QUANTITY [hartree] =                               0.000000000000E+00

                                              INSTANTANEOUS             AVERAGES
 CPU TIME [s]                 =                        0.25                 0.27
 ENERGY DRIFT PER ATOM [K]    =          0.000000000000E+00   0.000000000000E+00
 POTENTIAL ENERGY[hartree]    =          0.000000000000E+00   0.000000000000E+00
 KINETIC ENERGY [hartree]     =          0.000000000000E+00   0.000000000000E+00
 TEMPERATURE [K]              =                       0.000                0.000
 *******************************************************************************

 FOBSH| *** OFF-DIAGONAL GRADIENT CALCULATION
 FOBSH| Put former active state           3 in new active state           3
 FOBSH| ACTIVE STATE =            3

 ENERGY| Total FORCE_EVAL ( MIXED ) energy (a.u.):             0.000000000000000

 FOBSH| CASE1: no hop and no trivial crossing
 ENTER integrator.F
 STEP NUMBER                  =           13
 CPU TIME [s]                 =   0.20175674185156822       0.26679640220334899     

 *******************************************************************************
 ENSEMBLE TYPE                =                                              NVE
 STEP NUMBER                  =                                               13
 TIME [fs]                    =                                         1.300000
 CONSERVED QUANTITY [hartree] =                               0.000000000000E+00

                                              INSTANTANEOUS             AVERAGES
 CPU TIME [s]                 =                        0.20                 0.27
 ENERGY DRIFT PER ATOM [K]    =          0.000000000000E+00   0.000000000000E+00
 POTENTIAL ENERGY[hartree]    =          0.000000000000E+00   0.000000000000E+00
 KINETIC ENERGY [hartree]     =          0.000000000000E+00   0.000000000000E+00
 TEMPERATURE [K]              =                       0.000                0.000
 *******************************************************************************

 FOBSH| *** OFF-DIAGONAL GRADIENT CALCULATION
 FOBSH| Put former active state           3 in new active state           3
 FOBSH| ACTIVE STATE =            3

 ENERGY| Total FORCE_EVAL ( MIXED ) energy (a.u.):             0.000000000000000

 FOBSH| CASE1: no hop and no trivial crossing
 ENTER integrator.F
 STEP NUMBER                  =           14
 CPU TIME [s]                 =   0.17995589599013329       0.26059350890240501     

 *******************************************************************************
 ENSEMBLE TYPE                =                                              NVE
 STEP NUMBER                  =                                               14
 TIME [fs]                    =                                         1.400000
 CONSERVED QUANTITY [hartree] =                               0.000000000000E+00

                                              INSTANTANEOUS             AVERAGES
 CPU TIME [s]                 =                        0.18                 0.26
 ENERGY DRIFT PER ATOM [K]    =          0.000000000000E+00   0.000000000000E+00
 POTENTIAL ENERGY[hartree]    =          0.000000000000E+00   0.000000000000E+00
 KINETIC ENERGY [hartree]     =          0.000000000000E+00   0.000000000000E+00
 TEMPERATURE [K]              =                       0.000                0.000
 *******************************************************************************

 FOBSH| *** OFF-DIAGONAL GRADIENT CALCULATION
 FOBSH| Put former active state           3 in new active state           3
 FOBSH| ACTIVE STATE =            3

 ENERGY| Total FORCE_EVAL ( MIXED ) energy (a.u.):             0.000000000000000

 FOBSH| CASE1: no hop and no trivial crossing
 ENTER integrator.F
 STEP NUMBER                  =           15
 CPU TIME [s]                 =   0.17699540033936501       0.25502030166486900     

 *******************************************************************************
 ENSEMBLE TYPE                =                                              NVE
 STEP NUMBER                  =                                               15
 TIME [fs]                    =                                         1.500000
 CONSERVED QUANTITY [hartree] =                               0.000000000000E+00

                                              INSTANTANEOUS             AVERAGES
 CPU TIME [s]                 =                        0.18                 0.26
 ENERGY DRIFT PER ATOM [K]    =          0.000000000000E+00   0.000000000000E+00
 POTENTIAL ENERGY[hartree]    =          0.000000000000E+00   0.000000000000E+00
 KINETIC ENERGY [hartree]     =          0.000000000000E+00   0.000000000000E+00
 TEMPERATURE [K]              =                       0.000                0.000
 *******************************************************************************

 FOBSH| *** OFF-DIAGONAL GRADIENT CALCULATION
 FOBSH| Put former active state           3 in new active state           3
 FOBSH| ACTIVE STATE =            3

 ENERGY| Total FORCE_EVAL ( MIXED ) energy (a.u.):             0.000000000000000

 FOBSH| CASE1: no hop and no trivial crossing
 ENTER integrator.F
 STEP NUMBER                  =           16
 CPU TIME [s]                 =   0.19753743708133698       0.25142762262839824     

 *******************************************************************************
 ENSEMBLE TYPE                =                                              NVE
 STEP NUMBER                  =                                               16
 TIME [fs]                    =                                         1.600000
 CONSERVED QUANTITY [hartree] =                               0.000000000000E+00

                                              INSTANTANEOUS             AVERAGES
 CPU TIME [s]                 =                        0.20                 0.25
 ENERGY DRIFT PER ATOM [K]    =          0.000000000000E+00   0.000000000000E+00
 POTENTIAL ENERGY[hartree]    =          0.000000000000E+00   0.000000000000E+00
 KINETIC ENERGY [hartree]     =          0.000000000000E+00   0.000000000000E+00
 TEMPERATURE [K]              =                       0.000                0.000
 *******************************************************************************

 FOBSH| *** OFF-DIAGONAL GRADIENT CALCULATION
 FOBSH| Put former active state           3 in new active state           3
 FOBSH| ACTIVE STATE =            3

 ENERGY| Total FORCE_EVAL ( MIXED ) energy (a.u.):             0.000000000000000

 FOBSH| CASE1: no hop and no trivial crossing
 ENTER integrator.F
 STEP NUMBER                  =           17
 CPU TIME [s]                 =   0.16894853487610817       0.24657591158414588     

 *******************************************************************************
 ENSEMBLE TYPE                =                                              NVE
 STEP NUMBER                  =                                               17
 TIME [fs]                    =                                         1.700000
 CONSERVED QUANTITY [hartree] =                               0.000000000000E+00

                                              INSTANTANEOUS             AVERAGES
 CPU TIME [s]                 =                        0.17                 0.25
 ENERGY DRIFT PER ATOM [K]    =          0.000000000000E+00   0.000000000000E+00
 POTENTIAL ENERGY[hartree]    =          0.000000000000E+00   0.000000000000E+00
 KINETIC ENERGY [hartree]     =          0.000000000000E+00   0.000000000000E+00
 TEMPERATURE [K]              =                       0.000                0.000
 *******************************************************************************

 FOBSH| *** OFF-DIAGONAL GRADIENT CALCULATION
 FOBSH| Put former active state           3 in new active state           3
 FOBSH| ACTIVE STATE =            3

 ENERGY| Total FORCE_EVAL ( MIXED ) energy (a.u.):             0.000000000000000

 FOBSH| CASE1: no hop and no trivial crossing
 ENTER integrator.F
 STEP NUMBER                  =           18
 CPU TIME [s]                 =   0.19376167096197605       0.24364178710513643     

 *******************************************************************************
 ENSEMBLE TYPE                =                                              NVE
 STEP NUMBER                  =                                               18
 TIME [fs]                    =                                         1.800000
 CONSERVED QUANTITY [hartree] =                               0.000000000000E+00

                                              INSTANTANEOUS             AVERAGES
 CPU TIME [s]                 =                        0.19                 0.24
 ENERGY DRIFT PER ATOM [K]    =          0.000000000000E+00   0.000000000000E+00
 POTENTIAL ENERGY[hartree]    =          0.000000000000E+00   0.000000000000E+00
 KINETIC ENERGY [hartree]     =          0.000000000000E+00   0.000000000000E+00
 TEMPERATURE [K]              =                       0.000                0.000
 *******************************************************************************

 FOBSH| *** OFF-DIAGONAL GRADIENT CALCULATION
 FOBSH| Put former active state           3 in new active state           3
 FOBSH| ACTIVE STATE =            3

 ENERGY| Total FORCE_EVAL ( MIXED ) energy (a.u.):             0.000000000000000

 FOBSH| CASE1: no hop and no trivial crossing
 ENTER integrator.F
 STEP NUMBER                  =           19
 CPU TIME [s]                 =   0.20057307556271553       0.24137501281343007     

 *******************************************************************************
 ENSEMBLE TYPE                =                                              NVE
 STEP NUMBER                  =                                               19
 TIME [fs]                    =                                         1.900000
 CONSERVED QUANTITY [hartree] =                               0.000000000000E+00

                                              INSTANTANEOUS             AVERAGES
 CPU TIME [s]                 =                        0.20                 0.24
 ENERGY DRIFT PER ATOM [K]    =          0.000000000000E+00   0.000000000000E+00
 POTENTIAL ENERGY[hartree]    =          0.000000000000E+00   0.000000000000E+00
 KINETIC ENERGY [hartree]     =          0.000000000000E+00   0.000000000000E+00
 TEMPERATURE [K]              =                       0.000                0.000
 *******************************************************************************

 FOBSH| *** OFF-DIAGONAL GRADIENT CALCULATION
 FOBSH| Put former active state           3 in new active state           3
 FOBSH| ACTIVE STATE =            3

 ENERGY| Total FORCE_EVAL ( MIXED ) energy (a.u.):             0.000000000000000

 FOBSH| CASE1: no hop and no trivial crossing
 ENTER integrator.F
 STEP NUMBER                  =           20
 CPU TIME [s]                 =   0.24319268018007278       0.24146589618176223     

 *******************************************************************************
 ENSEMBLE TYPE                =                                              NVE
 STEP NUMBER                  =                                               20
 TIME [fs]                    =                                         2.000000
 CONSERVED QUANTITY [hartree] =                               0.000000000000E+00

                                              INSTANTANEOUS             AVERAGES
 CPU TIME [s]                 =                        0.24                 0.24
 ENERGY DRIFT PER ATOM [K]    =          0.000000000000E+00   0.000000000000E+00
 POTENTIAL ENERGY[hartree]    =          0.000000000000E+00   0.000000000000E+00
 KINETIC ENERGY [hartree]     =          0.000000000000E+00   0.000000000000E+00
 TEMPERATURE [K]              =                       0.000                0.000
 *******************************************************************************

 FOBSH| *** OFF-DIAGONAL GRADIENT CALCULATION
 FOBSH| Put former active state           3 in new active state           3
 FOBSH| ACTIVE STATE =            3

 ENERGY| Total FORCE_EVAL ( MIXED ) energy (a.u.):             0.000000000000000

 FOBSH| CASE1: no hop and no trivial crossing
 ENTER integrator.F
 STEP NUMBER                  =           21
 CPU TIME [s]                 =   0.23984314501285553       0.24138862231657618     

 *******************************************************************************
 ENSEMBLE TYPE                =                                              NVE
 STEP NUMBER                  =                                               21
 TIME [fs]                    =                                         2.100000
 CONSERVED QUANTITY [hartree] =                               0.000000000000E+00

                                              INSTANTANEOUS             AVERAGES
 CPU TIME [s]                 =                        0.24                 0.24
 ENERGY DRIFT PER ATOM [K]    =          0.000000000000E+00   0.000000000000E+00
 POTENTIAL ENERGY[hartree]    =          0.000000000000E+00   0.000000000000E+00
 KINETIC ENERGY [hartree]     =          0.000000000000E+00   0.000000000000E+00
 TEMPERATURE [K]              =                       0.000                0.000
 *******************************************************************************

 FOBSH| *** OFF-DIAGONAL GRADIENT CALCULATION
 FOBSH| Put former active state           3 in new active state           3
 FOBSH| ACTIVE STATE =            3

 ENERGY| Total FORCE_EVAL ( MIXED ) energy (a.u.):             0.000000000000000

 FOBSH| CASE1: no hop and no trivial crossing
 ENTER integrator.F
 STEP NUMBER                  =           22
 CPU TIME [s]                 =   0.17243276350200176       0.23825426509773190     

 *******************************************************************************
 ENSEMBLE TYPE                =                                              NVE
 STEP NUMBER                  =                                               22
 TIME [fs]                    =                                         2.200000
 CONSERVED QUANTITY [hartree] =                               0.000000000000E+00

                                              INSTANTANEOUS             AVERAGES
 CPU TIME [s]                 =                        0.17                 0.24
 ENERGY DRIFT PER ATOM [K]    =          0.000000000000E+00   0.000000000000E+00
 POTENTIAL ENERGY[hartree]    =          0.000000000000E+00   0.000000000000E+00
 KINETIC ENERGY [hartree]     =          0.000000000000E+00   0.000000000000E+00
 TEMPERATURE [K]              =                       0.000                0.000
 *******************************************************************************

 FOBSH| *** OFF-DIAGONAL GRADIENT CALCULATION
 FOBSH| Put former active state           3 in new active state           3
 FOBSH| ACTIVE STATE =            3

 ENERGY| Total FORCE_EVAL ( MIXED ) energy (a.u.):             0.000000000000000

 FOBSH| CASE1: no hop and no trivial crossing
 ENTER integrator.F
 STEP NUMBER                  =           23
 CPU TIME [s]                 =   0.23787561058998108       0.23823780185826446     

 *******************************************************************************
 ENSEMBLE TYPE                =                                              NVE
 STEP NUMBER                  =                                               23
 TIME [fs]                    =                                         2.300000
 CONSERVED QUANTITY [hartree] =                               0.000000000000E+00

                                              INSTANTANEOUS             AVERAGES
 CPU TIME [s]                 =                        0.24                 0.24
 ENERGY DRIFT PER ATOM [K]    =          0.000000000000E+00   0.000000000000E+00
 POTENTIAL ENERGY[hartree]    =          0.000000000000E+00   0.000000000000E+00
 KINETIC ENERGY [hartree]     =          0.000000000000E+00   0.000000000000E+00
 TEMPERATURE [K]              =                       0.000                0.000
 *******************************************************************************

 FOBSH| *** OFF-DIAGONAL GRADIENT CALCULATION
 FOBSH| Put former active state           3 in new active state           3
 FOBSH| ACTIVE STATE =            3

 ENERGY| Total FORCE_EVAL ( MIXED ) energy (a.u.):             0.000000000000000

 FOBSH| CASE1: no hop and no trivial crossing
 ENTER integrator.F
 STEP NUMBER                  =           24
 CPU TIME [s]                 =   0.27064797282218933       0.23958822564842799     

 *******************************************************************************
 ENSEMBLE TYPE                =                                              NVE
 STEP NUMBER                  =                                               24
 TIME [fs]                    =                                         2.400000
 CONSERVED QUANTITY [hartree] =                               0.000000000000E+00

                                              INSTANTANEOUS             AVERAGES
 CPU TIME [s]                 =                        0.27                 0.24
 ENERGY DRIFT PER ATOM [K]    =          0.000000000000E+00   0.000000000000E+00
 POTENTIAL ENERGY[hartree]    =          0.000000000000E+00   0.000000000000E+00
 KINETIC ENERGY [hartree]     =          0.000000000000E+00   0.000000000000E+00
 TEMPERATURE [K]              =                       0.000                0.000
 *******************************************************************************

 FOBSH| *** OFF-DIAGONAL GRADIENT CALCULATION
 FOBSH| Put former active state           3 in new active state           3
 FOBSH| ACTIVE STATE =            3

 ENERGY| Total FORCE_EVAL ( MIXED ) energy (a.u.):             0.000000000000000

 FOBSH| CASE1: no hop and no trivial crossing
 ENTER integrator.F
 STEP NUMBER                  =           25
 CPU TIME [s]                 =   0.27648606337606907       0.24106413915753366     

 *******************************************************************************
 ENSEMBLE TYPE                =                                              NVE
 STEP NUMBER                  =                                               25
 TIME [fs]                    =                                         2.500000
 CONSERVED QUANTITY [hartree] =                               0.000000000000E+00

                                              INSTANTANEOUS             AVERAGES
 CPU TIME [s]                 =                        0.28                 0.24
 ENERGY DRIFT PER ATOM [K]    =          0.000000000000E+00   0.000000000000E+00
 POTENTIAL ENERGY[hartree]    =          0.000000000000E+00   0.000000000000E+00
 KINETIC ENERGY [hartree]     =          0.000000000000E+00   0.000000000000E+00
 TEMPERATURE [K]              =                       0.000                0.000
 *******************************************************************************

 FOBSH| *** OFF-DIAGONAL GRADIENT CALCULATION
 FOBSH| Put former active state           3 in new active state           3
 FOBSH| ACTIVE STATE =            3

 ENERGY| Total FORCE_EVAL ( MIXED ) energy (a.u.):             0.000000000000000

 FOBSH| CASE1: no hop and no trivial crossing
 ENTER integrator.F
 STEP NUMBER                  =           26
 CPU TIME [s]                 =   0.17868215404450893       0.23866483203780195     

 *******************************************************************************
 ENSEMBLE TYPE                =                                              NVE
 STEP NUMBER                  =                                               26
 TIME [fs]                    =                                         2.600000
 CONSERVED QUANTITY [hartree] =                               0.000000000000E+00

                                              INSTANTANEOUS             AVERAGES
 CPU TIME [s]                 =                        0.18                 0.24
 ENERGY DRIFT PER ATOM [K]    =          0.000000000000E+00   0.000000000000E+00
 POTENTIAL ENERGY[hartree]    =          0.000000000000E+00   0.000000000000E+00
 KINETIC ENERGY [hartree]     =          0.000000000000E+00   0.000000000000E+00
 TEMPERATURE [K]              =                       0.000                0.000
 *******************************************************************************

 FOBSH| *** OFF-DIAGONAL GRADIENT CALCULATION
 FOBSH| Put former active state           3 in new active state           3
 FOBSH| ACTIVE STATE =            3

 ENERGY| Total FORCE_EVAL ( MIXED ) energy (a.u.):             0.000000000000000

 FOBSH| CASE1: no hop and no trivial crossing
 ENTER integrator.F
 STEP NUMBER                  =           27
 CPU TIME [s]                 =   0.12676915898919106       0.23452054785081636     

 *******************************************************************************
 ENSEMBLE TYPE                =                                              NVE
 STEP NUMBER                  =                                               27
 TIME [fs]                    =                                         2.700000
 CONSERVED QUANTITY [hartree] =                               0.000000000000E+00

                                              INSTANTANEOUS             AVERAGES
 CPU TIME [s]                 =                        0.13                 0.23
 ENERGY DRIFT PER ATOM [K]    =          0.000000000000E+00   0.000000000000E+00
 POTENTIAL ENERGY[hartree]    =          0.000000000000E+00   0.000000000000E+00
 KINETIC ENERGY [hartree]     =          0.000000000000E+00   0.000000000000E+00
 TEMPERATURE [K]              =                       0.000                0.000
 *******************************************************************************

 FOBSH| *** OFF-DIAGONAL GRADIENT CALCULATION
 FOBSH| Put former active state           3 in new active state           3
 FOBSH| ACTIVE STATE =            3

 ENERGY| Total FORCE_EVAL ( MIXED ) energy (a.u.):             0.000000000000000

 FOBSH| CASE1: no hop and no trivial crossing
 ENTER integrator.F
 STEP NUMBER                  =           28
 CPU TIME [s]                 =   0.16843907162547112       0.23216049512848261     

 *******************************************************************************
 ENSEMBLE TYPE                =                                              NVE
 STEP NUMBER                  =                                               28
 TIME [fs]                    =                                         2.800000
 CONSERVED QUANTITY [hartree] =                               0.000000000000E+00

                                              INSTANTANEOUS             AVERAGES
 CPU TIME [s]                 =                        0.17                 0.23
 ENERGY DRIFT PER ATOM [K]    =          0.000000000000E+00   0.000000000000E+00
 POTENTIAL ENERGY[hartree]    =          0.000000000000E+00   0.000000000000E+00
 KINETIC ENERGY [hartree]     =          0.000000000000E+00   0.000000000000E+00
 TEMPERATURE [K]              =                       0.000                0.000
 *******************************************************************************

 FOBSH| *** OFF-DIAGONAL GRADIENT CALCULATION
 FOBSH| Put former active state           3 in new active state           3
 FOBSH| ACTIVE STATE =            3

 ENERGY| Total FORCE_EVAL ( MIXED ) energy (a.u.):             0.000000000000000

 FOBSH| CASE1: no hop and no trivial crossing
 ENTER integrator.F
 STEP NUMBER                  =           29
 CPU TIME [s]                 =    9.5264624804258347E-002  0.22743994787592314     

 *******************************************************************************
 ENSEMBLE TYPE                =                                              NVE
 STEP NUMBER                  =                                               29
 TIME [fs]                    =                                         2.900000
 CONSERVED QUANTITY [hartree] =                               0.000000000000E+00

                                              INSTANTANEOUS             AVERAGES
 CPU TIME [s]                 =                        0.10                 0.23
 ENERGY DRIFT PER ATOM [K]    =          0.000000000000E+00   0.000000000000E+00
 POTENTIAL ENERGY[hartree]    =          0.000000000000E+00   0.000000000000E+00
 KINETIC ENERGY [hartree]     =          0.000000000000E+00   0.000000000000E+00
 TEMPERATURE [K]              =                       0.000                0.000
 *******************************************************************************

 FOBSH| *** OFF-DIAGONAL GRADIENT CALCULATION
 FOBSH| Put former active state           3 in new active state           3
 FOBSH| ACTIVE STATE =            3

 ENERGY| Total FORCE_EVAL ( MIXED ) energy (a.u.):             0.000000000000000

 FOBSH| CASE1: no hop and no trivial crossing
 ENTER integrator.F
 STEP NUMBER                  =           30
 CPU TIME [s]                 =   0.16753959283232689       0.22544326937446993     

 *******************************************************************************
 ENSEMBLE TYPE                =                                              NVE
 STEP NUMBER                  =                                               30
 TIME [fs]                    =                                         3.000000
 CONSERVED QUANTITY [hartree] =                               0.000000000000E+00

                                              INSTANTANEOUS             AVERAGES
 CPU TIME [s]                 =                        0.17                 0.23
 ENERGY DRIFT PER ATOM [K]    =          0.000000000000E+00   0.000000000000E+00
 POTENTIAL ENERGY[hartree]    =          0.000000000000E+00   0.000000000000E+00
 KINETIC ENERGY [hartree]     =          0.000000000000E+00   0.000000000000E+00
 TEMPERATURE [K]              =                       0.000                0.000
 *******************************************************************************

 FOBSH| *** OFF-DIAGONAL GRADIENT CALCULATION
 FOBSH| Put former active state           3 in new active state           3
 FOBSH| ACTIVE STATE =            3

 ENERGY| Total FORCE_EVAL ( MIXED ) energy (a.u.):             0.000000000000000

 FOBSH| CASE1: no hop and no trivial crossing
 ENTER integrator.F
 STEP NUMBER                  =           31
 CPU TIME [s]                 =   0.23772179335355759       0.22583935079315015     

 *******************************************************************************
 ENSEMBLE TYPE                =                                              NVE
 STEP NUMBER                  =                                               31
 TIME [fs]                    =                                         3.100000
 CONSERVED QUANTITY [hartree] =                               0.000000000000E+00

                                              INSTANTANEOUS             AVERAGES
 CPU TIME [s]                 =                        0.24                 0.23
 ENERGY DRIFT PER ATOM [K]    =          0.000000000000E+00   0.000000000000E+00
 POTENTIAL ENERGY[hartree]    =          0.000000000000E+00   0.000000000000E+00
 KINETIC ENERGY [hartree]     =          0.000000000000E+00   0.000000000000E+00
 TEMPERATURE [K]              =                       0.000                0.000
 *******************************************************************************

 FOBSH| *** OFF-DIAGONAL GRADIENT CALCULATION
 FOBSH| Put former active state           3 in new active state           3
 FOBSH| ACTIVE STATE =            3

 ENERGY| Total FORCE_EVAL ( MIXED ) energy (a.u.):             0.000000000000000

 FOBSH| CASE1: no hop and no trivial crossing
 ENTER integrator.F
 STEP NUMBER                  =           32
 CPU TIME [s]                 =   0.18375391326844692       0.22452418087050319     

 *******************************************************************************
 ENSEMBLE TYPE                =                                              NVE
 STEP NUMBER                  =                                               32
 TIME [fs]                    =                                         3.200000
 CONSERVED QUANTITY [hartree] =                               0.000000000000E+00

                                              INSTANTANEOUS             AVERAGES
 CPU TIME [s]                 =                        0.18                 0.22
 ENERGY DRIFT PER ATOM [K]    =          0.000000000000E+00   0.000000000000E+00
 POTENTIAL ENERGY[hartree]    =          0.000000000000E+00   0.000000000000E+00
 KINETIC ENERGY [hartree]     =          0.000000000000E+00   0.000000000000E+00
 TEMPERATURE [K]              =                       0.000                0.000
 *******************************************************************************

 FOBSH| *** OFF-DIAGONAL GRADIENT CALCULATION
 FOBSH| Put former active state           3 in new active state           3
 FOBSH| ACTIVE STATE =            3

 ENERGY| Total FORCE_EVAL ( MIXED ) energy (a.u.):             0.000000000000000

 FOBSH| CASE1: no hop and no trivial crossing
 ENTER integrator.F
 STEP NUMBER                  =           33
 CPU TIME [s]                 =   0.17308092489838600       0.22296529432589357     

 *******************************************************************************
 ENSEMBLE TYPE                =                                              NVE
 STEP NUMBER                  =                                               33
 TIME [fs]                    =                                         3.300000
 CONSERVED QUANTITY [hartree] =                               0.000000000000E+00

                                              INSTANTANEOUS             AVERAGES
 CPU TIME [s]                 =                        0.17                 0.22
 ENERGY DRIFT PER ATOM [K]    =          0.000000000000E+00   0.000000000000E+00
 POTENTIAL ENERGY[hartree]    =          0.000000000000E+00   0.000000000000E+00
 KINETIC ENERGY [hartree]     =          0.000000000000E+00   0.000000000000E+00
 TEMPERATURE [K]              =                       0.000                0.000
 *******************************************************************************

 FOBSH| *** OFF-DIAGONAL GRADIENT CALCULATION
 FOBSH| Put former active state           3 in new active state           3
 FOBSH| ACTIVE STATE =            3

 ENERGY| Total FORCE_EVAL ( MIXED ) energy (a.u.):             0.000000000000000

 FOBSH| CASE1: no hop and no trivial crossing
 ENTER integrator.F
 STEP NUMBER                  =           34
 CPU TIME [s]                 =   0.17959626764059067       0.22168973471750231     

 *******************************************************************************
 ENSEMBLE TYPE                =                                              NVE
 STEP NUMBER                  =                                               34
 TIME [fs]                    =                                         3.400000
 CONSERVED QUANTITY [hartree] =                               0.000000000000E+00

                                              INSTANTANEOUS             AVERAGES
 CPU TIME [s]                 =                        0.18                 0.22
 ENERGY DRIFT PER ATOM [K]    =          0.000000000000E+00   0.000000000000E+00
 POTENTIAL ENERGY[hartree]    =          0.000000000000E+00   0.000000000000E+00
 KINETIC ENERGY [hartree]     =          0.000000000000E+00   0.000000000000E+00
 TEMPERATURE [K]              =                       0.000                0.000
 *******************************************************************************

 FOBSH| *** OFF-DIAGONAL GRADIENT CALCULATION
 FOBSH| Put former active state           3 in new active state           3
 FOBSH| ACTIVE STATE =            3

 ENERGY| Total FORCE_EVAL ( MIXED ) energy (a.u.):             0.000000000000000

 FOBSH| CASE1: no hop and no trivial crossing
 ENTER integrator.F
 STEP NUMBER                  =           35
 CPU TIME [s]                 =   0.18091674521565437       0.22052479216030665     

 *******************************************************************************
 ENSEMBLE TYPE                =                                              NVE
 STEP NUMBER                  =                                               35
 TIME [fs]                    =                                         3.500000
 CONSERVED QUANTITY [hartree] =                               0.000000000000E+00

                                              INSTANTANEOUS             AVERAGES
 CPU TIME [s]                 =                        0.18                 0.22
 ENERGY DRIFT PER ATOM [K]    =          0.000000000000E+00   0.000000000000E+00
 POTENTIAL ENERGY[hartree]    =          0.000000000000E+00   0.000000000000E+00
 KINETIC ENERGY [hartree]     =          0.000000000000E+00   0.000000000000E+00
 TEMPERATURE [K]              =                       0.000                0.000
 *******************************************************************************

 FOBSH| *** OFF-DIAGONAL GRADIENT CALCULATION
 FOBSH| Put former active state           3 in new active state           3
 FOBSH| ACTIVE STATE =            3

 ENERGY| Total FORCE_EVAL ( MIXED ) energy (a.u.):             0.000000000000000

 FOBSH| CASE1: no hop and no trivial crossing
 ENTER integrator.F
 STEP NUMBER                  =           36
 CPU TIME [s]                 =   0.18012683466076851       0.21940262667420837     

 *******************************************************************************
 ENSEMBLE TYPE                =                                              NVE
 STEP NUMBER                  =                                               36
 TIME [fs]                    =                                         3.600000
 CONSERVED QUANTITY [hartree] =                               0.000000000000E+00

                                              INSTANTANEOUS             AVERAGES
 CPU TIME [s]                 =                        0.18                 0.22
 ENERGY DRIFT PER ATOM [K]    =          0.000000000000E+00   0.000000000000E+00
 POTENTIAL ENERGY[hartree]    =          0.000000000000E+00   0.000000000000E+00
 KINETIC ENERGY [hartree]     =          0.000000000000E+00   0.000000000000E+00
 TEMPERATURE [K]              =                       0.000                0.000
 *******************************************************************************

 FOBSH| *** OFF-DIAGONAL GRADIENT CALCULATION
 FOBSH| Put former active state           3 in new active state           3
 FOBSH| ACTIVE STATE =            3

 ENERGY| Total FORCE_EVAL ( MIXED ) energy (a.u.):             0.000000000000000

 FOBSH| CASE1: no hop and no trivial crossing
 ENTER integrator.F
 STEP NUMBER                  =           37
 CPU TIME [s]                 =   0.17794873937964439       0.21828225134192286     

 *******************************************************************************
 ENSEMBLE TYPE                =                                              NVE
 STEP NUMBER                  =                                               37
 TIME [fs]                    =                                         3.700000
 CONSERVED QUANTITY [hartree] =                               0.000000000000E+00

                                              INSTANTANEOUS             AVERAGES
 CPU TIME [s]                 =                        0.18                 0.22
 ENERGY DRIFT PER ATOM [K]    =          0.000000000000E+00   0.000000000000E+00
 POTENTIAL ENERGY[hartree]    =          0.000000000000E+00   0.000000000000E+00
 KINETIC ENERGY [hartree]     =          0.000000000000E+00   0.000000000000E+00
 TEMPERATURE [K]              =                       0.000                0.000
 *******************************************************************************

 FOBSH| *** OFF-DIAGONAL GRADIENT CALCULATION
 FOBSH| Put former active state           3 in new active state           3
 FOBSH| ACTIVE STATE =            3

 ENERGY| Total FORCE_EVAL ( MIXED ) energy (a.u.):             0.000000000000000

 FOBSH| CASE1: no hop and no trivial crossing
 ENTER integrator.F
 STEP NUMBER                  =           38
 CPU TIME [s]                 =   0.19575827196240425       0.21768951504246184     

 *******************************************************************************
 ENSEMBLE TYPE                =                                              NVE
 STEP NUMBER                  =                                               38
 TIME [fs]                    =                                         3.800000
 CONSERVED QUANTITY [hartree] =                               0.000000000000E+00

                                              INSTANTANEOUS             AVERAGES
 CPU TIME [s]                 =                        0.20                 0.22
 ENERGY DRIFT PER ATOM [K]    =          0.000000000000E+00   0.000000000000E+00
 POTENTIAL ENERGY[hartree]    =          0.000000000000E+00   0.000000000000E+00
 KINETIC ENERGY [hartree]     =          0.000000000000E+00   0.000000000000E+00
 TEMPERATURE [K]              =                       0.000                0.000
 *******************************************************************************

 FOBSH| *** OFF-DIAGONAL GRADIENT CALCULATION
 FOBSH| Put former active state           3 in new active state           3
 FOBSH| ACTIVE STATE =            3

 ENERGY| Total FORCE_EVAL ( MIXED ) energy (a.u.):             0.000000000000000

 FOBSH| CASE1: no hop and no trivial crossing
 ENTER integrator.F
 STEP NUMBER                  =           39
 CPU TIME [s]                 =   0.17036435194313526       0.21647604932196629     

 *******************************************************************************
 ENSEMBLE TYPE                =                                              NVE
 STEP NUMBER                  =                                               39
 TIME [fs]                    =                                         3.900000
 CONSERVED QUANTITY [hartree] =                               0.000000000000E+00

                                              INSTANTANEOUS             AVERAGES
 CPU TIME [s]                 =                        0.17                 0.22
 ENERGY DRIFT PER ATOM [K]    =          0.000000000000E+00   0.000000000000E+00
 POTENTIAL ENERGY[hartree]    =          0.000000000000E+00   0.000000000000E+00
 KINETIC ENERGY [hartree]     =          0.000000000000E+00   0.000000000000E+00
 TEMPERATURE [K]              =                       0.000                0.000
 *******************************************************************************

 FOBSH| *** OFF-DIAGONAL GRADIENT CALCULATION
 FOBSH| Put former active state           3 in new active state           3
 FOBSH| ACTIVE STATE =            3

 ENERGY| Total FORCE_EVAL ( MIXED ) energy (a.u.):             0.000000000000000

 FOBSH| CASE1: no hop and no trivial crossing
 ENTER integrator.F
 STEP NUMBER                  =           40
 CPU TIME [s]                 =   0.19857498817145824       0.21602852279320361     

 *******************************************************************************
 ENSEMBLE TYPE                =                                              NVE
 STEP NUMBER                  =                                               40
 TIME [fs]                    =                                         4.000000
 CONSERVED QUANTITY [hartree] =                               0.000000000000E+00

                                              INSTANTANEOUS             AVERAGES
 CPU TIME [s]                 =                        0.20                 0.22
 ENERGY DRIFT PER ATOM [K]    =          0.000000000000E+00   0.000000000000E+00
 POTENTIAL ENERGY[hartree]    =          0.000000000000E+00   0.000000000000E+00
 KINETIC ENERGY [hartree]     =          0.000000000000E+00   0.000000000000E+00
 TEMPERATURE [K]              =                       0.000                0.000
 *******************************************************************************

 FOBSH| *** OFF-DIAGONAL GRADIENT CALCULATION
 FOBSH| Put former active state           3 in new active state           3
 FOBSH| ACTIVE STATE =            3

 ENERGY| Total FORCE_EVAL ( MIXED ) energy (a.u.):             0.000000000000000

 FOBSH| CASE1: no hop and no trivial crossing
 ENTER integrator.F
 STEP NUMBER                  =           41
 CPU TIME [s]                 =   0.18625167943537235       0.21530225832106137     

 *******************************************************************************
 ENSEMBLE TYPE                =                                              NVE
 STEP NUMBER                  =                                               41
 TIME [fs]                    =                                         4.100000
 CONSERVED QUANTITY [hartree] =                               0.000000000000E+00

                                              INSTANTANEOUS             AVERAGES
 CPU TIME [s]                 =                        0.19                 0.22
 ENERGY DRIFT PER ATOM [K]    =          0.000000000000E+00   0.000000000000E+00
 POTENTIAL ENERGY[hartree]    =          0.000000000000E+00   0.000000000000E+00
 KINETIC ENERGY [hartree]     =          0.000000000000E+00   0.000000000000E+00
 TEMPERATURE [K]              =                       0.000                0.000
 *******************************************************************************

 FOBSH| *** OFF-DIAGONAL GRADIENT CALCULATION
 FOBSH| Put former active state           3 in new active state           3
 FOBSH| ACTIVE STATE =            3

 ENERGY| Total FORCE_EVAL ( MIXED ) energy (a.u.):             0.000000000000000

 FOBSH| CASE1: no hop and no trivial crossing
 ENTER integrator.F
 STEP NUMBER                  =           42
 CPU TIME [s]                 =   0.17049908824265003       0.21423551617633727     

 *******************************************************************************
 ENSEMBLE TYPE                =                                              NVE
 STEP NUMBER                  =                                               42
 TIME [fs]                    =                                         4.200000
 CONSERVED QUANTITY [hartree] =                               0.000000000000E+00

                                              INSTANTANEOUS             AVERAGES
 CPU TIME [s]                 =                        0.17                 0.21
 ENERGY DRIFT PER ATOM [K]    =          0.000000000000E+00   0.000000000000E+00
 POTENTIAL ENERGY[hartree]    =          0.000000000000E+00   0.000000000000E+00
 KINETIC ENERGY [hartree]     =          0.000000000000E+00   0.000000000000E+00
 TEMPERATURE [K]              =                       0.000                0.000
 *******************************************************************************

 FOBSH| *** OFF-DIAGONAL GRADIENT CALCULATION
 FOBSH| Put former active state           3 in new active state           3
 FOBSH| ACTIVE STATE =            3

 ENERGY| Total FORCE_EVAL ( MIXED ) energy (a.u.):             0.000000000000000

 FOBSH| CASE1: no hop and no trivial crossing
 ENTER integrator.F
 STEP NUMBER                  =           43
 CPU TIME [s]                 =   0.18119581788778305       0.21346715109985923     

 *******************************************************************************
 ENSEMBLE TYPE                =                                              NVE
 STEP NUMBER                  =                                               43
 TIME [fs]                    =                                         4.300000
 CONSERVED QUANTITY [hartree] =                               0.000000000000E+00

                                              INSTANTANEOUS             AVERAGES
 CPU TIME [s]                 =                        0.18                 0.21
 ENERGY DRIFT PER ATOM [K]    =          0.000000000000E+00   0.000000000000E+00
 POTENTIAL ENERGY[hartree]    =          0.000000000000E+00   0.000000000000E+00
 KINETIC ENERGY [hartree]     =          0.000000000000E+00   0.000000000000E+00
 TEMPERATURE [K]              =                       0.000                0.000
 *******************************************************************************

 FOBSH| *** OFF-DIAGONAL GRADIENT CALCULATION
 FOBSH| Put former active state           3 in new active state           3
 FOBSH| ACTIVE STATE =            3

 ENERGY| Total FORCE_EVAL ( MIXED ) energy (a.u.):             0.000000000000000

 FOBSH| CASE1: no hop and no trivial crossing
 ENTER integrator.F
 STEP NUMBER                  =           44
 CPU TIME [s]                 =   0.18948557041585445       0.21292211517522278     

 *******************************************************************************
 ENSEMBLE TYPE                =                                              NVE
 STEP NUMBER                  =                                               44
 TIME [fs]                    =                                         4.400000
 CONSERVED QUANTITY [hartree] =                               0.000000000000E+00

                                              INSTANTANEOUS             AVERAGES
 CPU TIME [s]                 =                        0.19                 0.21
 ENERGY DRIFT PER ATOM [K]    =          0.000000000000E+00   0.000000000000E+00
 POTENTIAL ENERGY[hartree]    =          0.000000000000E+00   0.000000000000E+00
 KINETIC ENERGY [hartree]     =          0.000000000000E+00   0.000000000000E+00
 TEMPERATURE [K]              =                       0.000                0.000
 *******************************************************************************

 FOBSH| *** OFF-DIAGONAL GRADIENT CALCULATION
 FOBSH| Put former active state           3 in new active state           3
 FOBSH| ACTIVE STATE =            3

 ENERGY| Total FORCE_EVAL ( MIXED ) energy (a.u.):             0.000000000000000

 FOBSH| CASE1: no hop and no trivial crossing
 ENTER integrator.F
 STEP NUMBER                  =           45
 CPU TIME [s]                 =   0.16285687312483788       0.21180955424076978     

 *******************************************************************************
 ENSEMBLE TYPE                =                                              NVE
 STEP NUMBER                  =                                               45
 TIME [fs]                    =                                         4.500000
 CONSERVED QUANTITY [hartree] =                               0.000000000000E+00

                                              INSTANTANEOUS             AVERAGES
 CPU TIME [s]                 =                        0.16                 0.21
 ENERGY DRIFT PER ATOM [K]    =          0.000000000000E+00   0.000000000000E+00
 POTENTIAL ENERGY[hartree]    =          0.000000000000E+00   0.000000000000E+00
 KINETIC ENERGY [hartree]     =          0.000000000000E+00   0.000000000000E+00
 TEMPERATURE [K]              =                       0.000                0.000
 *******************************************************************************

 FOBSH| *** OFF-DIAGONAL GRADIENT CALCULATION
 FOBSH| Put former active state           3 in new active state           3
 FOBSH| ACTIVE STATE =            3

 ENERGY| Total FORCE_EVAL ( MIXED ) energy (a.u.):             0.000000000000000

 FOBSH| CASE1: no hop and no trivial crossing
 ENTER integrator.F
 STEP NUMBER                  =           46
 CPU TIME [s]                 =   0.18041391856968403       0.21112704042183311     

 *******************************************************************************
 ENSEMBLE TYPE                =                                              NVE
 STEP NUMBER                  =                                               46
 TIME [fs]                    =                                         4.600000
 CONSERVED QUANTITY [hartree] =                               0.000000000000E+00

                                              INSTANTANEOUS             AVERAGES
 CPU TIME [s]                 =                        0.18                 0.21
 ENERGY DRIFT PER ATOM [K]    =          0.000000000000E+00   0.000000000000E+00
 POTENTIAL ENERGY[hartree]    =          0.000000000000E+00   0.000000000000E+00
 KINETIC ENERGY [hartree]     =          0.000000000000E+00   0.000000000000E+00
 TEMPERATURE [K]              =                       0.000                0.000
 *******************************************************************************

 FOBSH| *** OFF-DIAGONAL GRADIENT CALCULATION
 FOBSH| Put former active state           3 in new active state           3
 FOBSH| ACTIVE STATE =            3

 ENERGY| Total FORCE_EVAL ( MIXED ) energy (a.u.):             0.000000000000000

 FOBSH| CASE1: no hop and no trivial crossing
 ENTER integrator.F
 STEP NUMBER                  =           47
 CPU TIME [s]                 =   0.20135277323424816       0.21091907729018239     

 *******************************************************************************
 ENSEMBLE TYPE                =                                              NVE
 STEP NUMBER                  =                                               47
 TIME [fs]                    =                                         4.700000
 CONSERVED QUANTITY [hartree] =                               0.000000000000E+00

                                              INSTANTANEOUS             AVERAGES
 CPU TIME [s]                 =                        0.20                 0.21
 ENERGY DRIFT PER ATOM [K]    =          0.000000000000E+00   0.000000000000E+00
 POTENTIAL ENERGY[hartree]    =          0.000000000000E+00   0.000000000000E+00
 KINETIC ENERGY [hartree]     =          0.000000000000E+00   0.000000000000E+00
 TEMPERATURE [K]              =                       0.000                0.000
 *******************************************************************************

 FOBSH| *** OFF-DIAGONAL GRADIENT CALCULATION
 FOBSH| Put former active state           3 in new active state           3
 FOBSH| ACTIVE STATE =            3

 ENERGY| Total FORCE_EVAL ( MIXED ) energy (a.u.):             0.000000000000000

 FOBSH| CASE1: no hop and no trivial crossing
 ENTER integrator.F
 STEP NUMBER                  =           48
 CPU TIME [s]                 =   0.20798199437558651       0.21085788806279496     

 *******************************************************************************
 ENSEMBLE TYPE                =                                              NVE
 STEP NUMBER                  =                                               48
 TIME [fs]                    =                                         4.800000
 CONSERVED QUANTITY [hartree] =                               0.000000000000E+00

                                              INSTANTANEOUS             AVERAGES
 CPU TIME [s]                 =                        0.21                 0.21
 ENERGY DRIFT PER ATOM [K]    =          0.000000000000E+00   0.000000000000E+00
 POTENTIAL ENERGY[hartree]    =          0.000000000000E+00   0.000000000000E+00
 KINETIC ENERGY [hartree]     =          0.000000000000E+00   0.000000000000E+00
 TEMPERATURE [K]              =                       0.000                0.000
 *******************************************************************************

 FOBSH| *** OFF-DIAGONAL GRADIENT CALCULATION
 FOBSH| Put former active state           3 in new active state           3
 FOBSH| ACTIVE STATE =            3

 ENERGY| Total FORCE_EVAL ( MIXED ) energy (a.u.):             0.000000000000000

 FOBSH| CASE1: no hop and no trivial crossing
 ENTER integrator.F
 STEP NUMBER                  =           49
 CPU TIME [s]                 =   0.20632942952215672       0.21076547054155742     

 *******************************************************************************
 ENSEMBLE TYPE                =                                              NVE
 STEP NUMBER                  =                                               49
 TIME [fs]                    =                                         4.900000
 CONSERVED QUANTITY [hartree] =                               0.000000000000E+00

                                              INSTANTANEOUS             AVERAGES
 CPU TIME [s]                 =                        0.21                 0.21
 ENERGY DRIFT PER ATOM [K]    =          0.000000000000E+00   0.000000000000E+00
 POTENTIAL ENERGY[hartree]    =          0.000000000000E+00   0.000000000000E+00
 KINETIC ENERGY [hartree]     =          0.000000000000E+00   0.000000000000E+00
 TEMPERATURE [K]              =                       0.000                0.000
 *******************************************************************************

 FOBSH| *** OFF-DIAGONAL GRADIENT CALCULATION
 FOBSH| Put former active state           3 in new active state           3
 FOBSH| ACTIVE STATE =            3

 ENERGY| Total FORCE_EVAL ( MIXED ) energy (a.u.):             0.000000000000000

 FOBSH| CASE1: no hop and no trivial crossing
 ENTER integrator.F
 STEP NUMBER                  =           50
 CPU TIME [s]                 =   0.20793468318879604       0.21070885479450219     

 *******************************************************************************
 ENSEMBLE TYPE                =                                              NVE
 STEP NUMBER                  =                                               50
 TIME [fs]                    =                                         5.000000
 CONSERVED QUANTITY [hartree] =                               0.000000000000E+00

                                              INSTANTANEOUS             AVERAGES
 CPU TIME [s]                 =                        0.21                 0.21
 ENERGY DRIFT PER ATOM [K]    =          0.000000000000E+00   0.000000000000E+00
 POTENTIAL ENERGY[hartree]    =          0.000000000000E+00   0.000000000000E+00
 KINETIC ENERGY [hartree]     =          0.000000000000E+00   0.000000000000E+00
 TEMPERATURE [K]              =                       0.000                0.000
 *******************************************************************************

 FOBSH| *** OFF-DIAGONAL GRADIENT CALCULATION
 FOBSH| Put former active state           3 in new active state           3
 FOBSH| ACTIVE STATE =            3

 ENERGY| Total FORCE_EVAL ( MIXED ) energy (a.u.):             0.000000000000000

 FOBSH| CASE1: no hop and no trivial crossing
 ENTER integrator.F
 STEP NUMBER                  =           51
 CPU TIME [s]                 =   0.22011196613311768       0.21089322952663189     

 *******************************************************************************
 ENSEMBLE TYPE                =                                              NVE
 STEP NUMBER                  =                                               51
 TIME [fs]                    =                                         5.100000
 CONSERVED QUANTITY [hartree] =                               0.000000000000E+00

                                              INSTANTANEOUS             AVERAGES
 CPU TIME [s]                 =                        0.22                 0.21
 ENERGY DRIFT PER ATOM [K]    =          0.000000000000E+00   0.000000000000E+00
 POTENTIAL ENERGY[hartree]    =          0.000000000000E+00   0.000000000000E+00
[...]
 STEP NUMBER                  =                                              190
 TIME [fs]                    =                                        19.000000
 CONSERVED QUANTITY [hartree] =                               0.000000000000E+00

                                              INSTANTANEOUS             AVERAGES
 CPU TIME [s]                 =                        0.08                 0.15
 ENERGY DRIFT PER ATOM [K]    =          0.000000000000E+00   0.000000000000E+00
 POTENTIAL ENERGY[hartree]    =          0.000000000000E+00   0.000000000000E+00
 KINETIC ENERGY [hartree]     =          0.000000000000E+00   0.000000000000E+00
 TEMPERATURE [K]              =                       0.000                0.000
 *******************************************************************************

 FOBSH| *** OFF-DIAGONAL GRADIENT CALCULATION
 FOBSH| Put former active state           3 in new active state           3
 FOBSH| ACTIVE STATE =            3

 ENERGY| Total FORCE_EVAL ( MIXED ) energy (a.u.):             0.000000000000000

 FOBSH| CASE1: no hop and no trivial crossing
 ENTER integrator.F
 STEP NUMBER                  =          191
 CPU TIME [s]                 =   0.11527329124510288       0.14933259314150402     

 *******************************************************************************
 ENSEMBLE TYPE                =                                              NVE
 STEP NUMBER                  =                                              191
 TIME [fs]                    =                                        19.100000
 CONSERVED QUANTITY [hartree] =                               0.000000000000E+00

                                              INSTANTANEOUS             AVERAGES
 CPU TIME [s]                 =                        0.12                 0.15
 ENERGY DRIFT PER ATOM [K]    =          0.000000000000E+00   0.000000000000E+00
 POTENTIAL ENERGY[hartree]    =          0.000000000000E+00   0.000000000000E+00
 KINETIC ENERGY [hartree]     =          0.000000000000E+00   0.000000000000E+00
 TEMPERATURE [K]              =                       0.000                0.000
 *******************************************************************************

 FOBSH| *** OFF-DIAGONAL GRADIENT CALCULATION
 FOBSH| Put former active state           3 in new active state           3
 FOBSH| ACTIVE STATE =            3

 ENERGY| Total FORCE_EVAL ( MIXED ) energy (a.u.):             0.000000000000000

 FOBSH| CASE1: no hop and no trivial crossing
 ENTER integrator.F
 STEP NUMBER                  =          192
 CPU TIME [s]                 =    7.6691204681992531E-002  0.14895425257661071     

 *******************************************************************************
 ENSEMBLE TYPE                =                                              NVE
 STEP NUMBER                  =                                              192
 TIME [fs]                    =                                        19.200000
 CONSERVED QUANTITY [hartree] =                               0.000000000000E+00

                                              INSTANTANEOUS             AVERAGES
 CPU TIME [s]                 =                        0.08                 0.15
 ENERGY DRIFT PER ATOM [K]    =          0.000000000000E+00   0.000000000000E+00
 POTENTIAL ENERGY[hartree]    =          0.000000000000E+00   0.000000000000E+00
 KINETIC ENERGY [hartree]     =          0.000000000000E+00   0.000000000000E+00
 TEMPERATURE [K]              =                       0.000                0.000
 *******************************************************************************

 FOBSH| *** OFF-DIAGONAL GRADIENT CALCULATION
 FOBSH| Put former active state           3 in new active state           3
 FOBSH| ACTIVE STATE =            3

 ENERGY| Total FORCE_EVAL ( MIXED ) energy (a.u.):             0.000000000000000

 FOBSH| CASE1: no hop and no trivial crossing
 ENTER integrator.F
 STEP NUMBER                  =          193
 CPU TIME [s]                 =   0.10133569315075874       0.14870752428943013     

 *******************************************************************************
 ENSEMBLE TYPE                =                                              NVE
 STEP NUMBER                  =                                              193
 TIME [fs]                    =                                        19.300000
 CONSERVED QUANTITY [hartree] =                               0.000000000000E+00

                                              INSTANTANEOUS             AVERAGES
 CPU TIME [s]                 =                        0.10                 0.15
 ENERGY DRIFT PER ATOM [K]    =          0.000000000000E+00   0.000000000000E+00
 POTENTIAL ENERGY[hartree]    =          0.000000000000E+00   0.000000000000E+00
 KINETIC ENERGY [hartree]     =          0.000000000000E+00   0.000000000000E+00
 TEMPERATURE [K]              =                       0.000                0.000
 *******************************************************************************

 FOBSH| *** OFF-DIAGONAL GRADIENT CALCULATION
 FOBSH| Put former active state           3 in new active state           3
 FOBSH| ACTIVE STATE =            3

 ENERGY| Total FORCE_EVAL ( MIXED ) energy (a.u.):             0.000000000000000

 FOBSH| CASE1: no hop and no trivial crossing
 ENTER integrator.F
 STEP NUMBER                  =          194
 CPU TIME [s]                 =    8.9921096339821815E-002  0.14840450146494760     

 *******************************************************************************
 ENSEMBLE TYPE                =                                              NVE
 STEP NUMBER                  =                                              194
 TIME [fs]                    =                                        19.400000
 CONSERVED QUANTITY [hartree] =                               0.000000000000E+00

                                              INSTANTANEOUS             AVERAGES
 CPU TIME [s]                 =                        0.09                 0.15
 ENERGY DRIFT PER ATOM [K]    =          0.000000000000E+00   0.000000000000E+00
 POTENTIAL ENERGY[hartree]    =          0.000000000000E+00   0.000000000000E+00
 KINETIC ENERGY [hartree]     =          0.000000000000E+00   0.000000000000E+00
 TEMPERATURE [K]              =                       0.000                0.000
 *******************************************************************************

 FOBSH| *** OFF-DIAGONAL GRADIENT CALCULATION
 FOBSH| Put former active state           3 in new active state           3
 FOBSH| ACTIVE STATE =            3

 ENERGY| Total FORCE_EVAL ( MIXED ) energy (a.u.):             0.000000000000000

 FOBSH| CASE1: no hop and no trivial crossing
 ENTER integrator.F
 STEP NUMBER                  =          195
 CPU TIME [s]                 =    7.6943684369325638E-002  0.14803803573625210     

 *******************************************************************************
 ENSEMBLE TYPE                =                                              NVE
 STEP NUMBER                  =                                              195
 TIME [fs]                    =                                        19.500000
 CONSERVED QUANTITY [hartree] =                               0.000000000000E+00

                                              INSTANTANEOUS             AVERAGES
 CPU TIME [s]                 =                        0.08                 0.15
 ENERGY DRIFT PER ATOM [K]    =          0.000000000000E+00   0.000000000000E+00
 POTENTIAL ENERGY[hartree]    =          0.000000000000E+00   0.000000000000E+00
 KINETIC ENERGY [hartree]     =          0.000000000000E+00   0.000000000000E+00
 TEMPERATURE [K]              =                       0.000                0.000
 *******************************************************************************

 FOBSH| *** OFF-DIAGONAL GRADIENT CALCULATION
 FOBSH| Put former active state           3 in new active state           3
 FOBSH| ACTIVE STATE =            3

 ENERGY| Total FORCE_EVAL ( MIXED ) energy (a.u.):             0.000000000000000

 FOBSH| CASE1: no hop and no trivial crossing
 ENTER integrator.F
 STEP NUMBER                  =          196
 CPU TIME [s]                 =    7.7070318162441254E-002  0.14767595554454896     

 *******************************************************************************
 ENSEMBLE TYPE                =                                              NVE
 STEP NUMBER                  =                                              196
 TIME [fs]                    =                                        19.600000
 CONSERVED QUANTITY [hartree] =                               0.000000000000E+00

                                              INSTANTANEOUS             AVERAGES
 CPU TIME [s]                 =                        0.08                 0.15
 ENERGY DRIFT PER ATOM [K]    =          0.000000000000E+00   0.000000000000E+00
 POTENTIAL ENERGY[hartree]    =          0.000000000000E+00   0.000000000000E+00
 KINETIC ENERGY [hartree]     =          0.000000000000E+00   0.000000000000E+00
 TEMPERATURE [K]              =                       0.000                0.000
 *******************************************************************************

 FOBSH| *** OFF-DIAGONAL GRADIENT CALCULATION
 FOBSH| Put former active state           3 in new active state           3
 FOBSH| ACTIVE STATE =            3

 ENERGY| Total FORCE_EVAL ( MIXED ) energy (a.u.):             0.000000000000000

 FOBSH| CASE1: no hop and no trivial crossing
 ENTER integrator.F
 STEP NUMBER                  =          197
 CPU TIME [s]                 =    7.6536117121577263E-002  0.14731483961346789     

 *******************************************************************************
 ENSEMBLE TYPE                =                                              NVE
 STEP NUMBER                  =                                              197
 TIME [fs]                    =                                        19.700000
 CONSERVED QUANTITY [hartree] =                               0.000000000000E+00

                                              INSTANTANEOUS             AVERAGES
 CPU TIME [s]                 =                        0.08                 0.15
 ENERGY DRIFT PER ATOM [K]    =          0.000000000000E+00   0.000000000000E+00
 POTENTIAL ENERGY[hartree]    =          0.000000000000E+00   0.000000000000E+00
 KINETIC ENERGY [hartree]     =          0.000000000000E+00   0.000000000000E+00
 TEMPERATURE [K]              =                       0.000                0.000
 *******************************************************************************

 FOBSH| *** OFF-DIAGONAL GRADIENT CALCULATION
 FOBSH| Put former active state           3 in new active state           3
 FOBSH| ACTIVE STATE =            3

 ENERGY| Total FORCE_EVAL ( MIXED ) energy (a.u.):             0.000000000000000

 FOBSH| CASE1: no hop and no trivial crossing
 ENTER integrator.F
 STEP NUMBER                  =          198
 CPU TIME [s]                 =    7.6503304764628410E-002  0.14695720559907982     

 *******************************************************************************
 ENSEMBLE TYPE                =                                              NVE
 STEP NUMBER                  =                                              198
 TIME [fs]                    =                                        19.800000
 CONSERVED QUANTITY [hartree] =                               0.000000000000E+00

                                              INSTANTANEOUS             AVERAGES
 CPU TIME [s]                 =                        0.08                 0.15
 ENERGY DRIFT PER ATOM [K]    =          0.000000000000E+00   0.000000000000E+00
 POTENTIAL ENERGY[hartree]    =          0.000000000000E+00   0.000000000000E+00
 KINETIC ENERGY [hartree]     =          0.000000000000E+00   0.000000000000E+00
 TEMPERATURE [K]              =                       0.000                0.000
 *******************************************************************************

 FOBSH| *** OFF-DIAGONAL GRADIENT CALCULATION
 FOBSH| Put former active state           3 in new active state           3
 FOBSH| ACTIVE STATE =            3

 ENERGY| Total FORCE_EVAL ( MIXED ) energy (a.u.):             0.000000000000000

 FOBSH| CASE1: no hop and no trivial crossing
 ENTER integrator.F
 STEP NUMBER                  =          199
 CPU TIME [s]                 =    7.6557315886020660E-002  0.14660343730906444     

 *******************************************************************************
 ENSEMBLE TYPE                =                                              NVE
 STEP NUMBER                  =                                              199
 TIME [fs]                    =                                        19.900000
 CONSERVED QUANTITY [hartree] =                               0.000000000000E+00

                                              INSTANTANEOUS             AVERAGES
 CPU TIME [s]                 =                        0.08                 0.15
 ENERGY DRIFT PER ATOM [K]    =          0.000000000000E+00   0.000000000000E+00
 POTENTIAL ENERGY[hartree]    =          0.000000000000E+00   0.000000000000E+00
 KINETIC ENERGY [hartree]     =          0.000000000000E+00   0.000000000000E+00
 TEMPERATURE [K]              =                       0.000                0.000
 *******************************************************************************

 FOBSH| *** OFF-DIAGONAL GRADIENT CALCULATION
 FOBSH| Put former active state           3 in new active state           3
 FOBSH| ACTIVE STATE =            3

 ENERGY| Total FORCE_EVAL ( MIXED ) energy (a.u.):             0.000000000000000

 FOBSH| CASE1: no hop and no trivial crossing
 ENTER integrator.F
 STEP NUMBER                  =          200
 CPU TIME [s]                 =    7.6362879946827888E-002  0.14625223452225325     

 *******************************************************************************
 ENSEMBLE TYPE                =                                              NVE
 STEP NUMBER                  =                                              200
 TIME [fs]                    =                                        20.000000
 CONSERVED QUANTITY [hartree] =                               0.000000000000E+00

                                              INSTANTANEOUS             AVERAGES
 CPU TIME [s]                 =                        0.08                 0.15
 ENERGY DRIFT PER ATOM [K]    =          0.000000000000E+00   0.000000000000E+00
 POTENTIAL ENERGY[hartree]    =          0.000000000000E+00   0.000000000000E+00
 KINETIC ENERGY [hartree]     =          0.000000000000E+00   0.000000000000E+00
 TEMPERATURE [K]              =                       0.000                0.000
 *******************************************************************************


 -------------------------------------------------------------------------------
 -                                                                             -
 -                                DBCSR STATISTICS                             -
 -                                                                             -
 -------------------------------------------------------------------------------
 COUNTER                                    TOTAL       BLAS       SMM       ACC
 flops total                                    0       0.0%      0.0%      0.0%
 flops max/rank                                 0       0.0%      0.0%      0.0%
 matmuls inhomo. stacks                         0       0.0%      0.0%      0.0%
 matmuls total                                  0       0.0%      0.0%      0.0%
 number of processed stacks                     0       0.0%      0.0%      0.0%
 average stack size                                     0.0       0.0       0.0
 marketing flops                     0.000000E+00
 -------------------------------------------------------------------------------

 MEMORY| Estimated peak process memory [MiB]                                 104

 -------------------------------------------------------------------------------
 -                                                                             -
 -                           R E F E R E N C E S                               -
 -                                                                             -
 -------------------------------------------------------------------------------
 
 CP2K version 4.0 (Development Version), the CP2K developers group (2015).
 CP2K is freely available from https://www.cp2k.org/ .

 Borstnik, U; VandeVondele, J; Weber, V; Hutter, J. 
 PARALLEL COMPUTING, 40 (5-6), 47-58 (2014). 
 Sparse matrix multiplication: The distributed block-compressed sparse
 row library.
 http://dx.doi.org/10.1016/j.parco.2014.03.012


 Hutter, J; Iannuzzi, M; Schiffmann, F; VandeVondele, J. 
 WILEY INTERDISCIPLINARY REVIEWS-COMPUTATIONAL MOLECULAR SCIENCE, 4 (1), 15-25 (2014). 
 CP2K: atomistic simulations of condensed matter systems.
 http://dx.doi.org/10.1002/wcms.1159


 Frigo, M; Johnson, SG. 
 PROCEEDINGS OF THE IEEE, 93 (2), 216-231 (2005). 
 The design and implementation of FFTW3.
 http://dx.doi.org/10.1109/JPROC.2004.840301


 -------------------------------------------------------------------------------
 -                                                                             -
 -                                T I M I N G                                  -
 -                                                                             -
 -------------------------------------------------------------------------------
 SUBROUTINE                       CALLS  ASD         SELF TIME        TOTAL TIME
                                MAXIMUM       AVERAGE  MAXIMUM  AVERAGE  MAXIMUM
 CP2K                                 1  1.0    0.032    0.032   38.660   38.660
 qs_mol_dyn_low                       1  2.0    0.176    0.176   29.316   29.316
 velocity_verlet                    200  3.0   20.854   20.854   27.706   27.706
 topology_control                     3  4.0    0.005    0.005    8.648    8.648
 connectivity_control                 3  5.0    0.006    0.006    8.298    8.298
 read_topology_psf                  150  6.0    3.657    3.657    8.282    8.282
 fist_calc_energy_force             402  4.0    0.055    0.055    7.103    7.103
 fist_create_force_env                2  2.0    0.000    0.000    6.653    6.653
 fist_init                            2  3.0    0.002    0.002    6.653    6.653
 force_nonbond                      201  5.0    5.701    5.701    5.701    5.701
 parser_read_line                 12762  7.2    0.213    0.213    5.276    5.276
 parser_read_line_low               171  7.9    5.032    5.032    5.063    5.063
 mixed_create_force_env               1  2.0    0.000    0.000    2.643    2.643
 mixed_init                           1  3.0    0.000    0.000    2.643    2.643
 md_output                          200  3.0    0.001    0.001    1.104    1.104
 force_intra_control                402  5.0    1.099    1.099    1.099    1.099
 md_write_output                    201  4.0    1.038    1.038    1.085    1.085
 -------------------------------------------------------------------------------

 The number of warnings for this run is : 1
 
 -------------------------------------------------------------------------------
  **** **** ******  **  PROGRAM ENDED AT                 2021-04-29 14:24:08.891
 ***** ** ***  *** **   PROGRAM RAN ON                   bulstake.phys.ucl.ac.uk
 **    ****   ******    PROGRAM RAN BY                                 sgiannini
 ***** **    ** ** **   PROGRAM PROCESS ID                                 12994
  **** **  *******  **  PROGRAM STOPPED IN /scratch/sgiannini/REG_TEST_MERGING/3
                                           7-071a0540f1_code_extension_V3_ADJ/ru
                                           n-fssh-MTS1_FROZEN_H
