#     Step Nr.          Time[fs]        Kin.[a.u.]          Temp[K]            Pot.[a.u.]        Cons Qty[a.u.]        UsedTime[s]
         0            0.000000         2.412123729       564.840579357         2.446232218         4.858355947         0.000000000
         1            0.100000         2.440711636       571.534933276         2.417622452         4.858334088        62.425319451
         2            0.200000         2.467926334       577.907726488         2.390386990         4.858313324         0.100322713
         3            0.300000         2.493438358       583.881809053         2.364855774         4.858294131         0.099535569
         4            0.400000         2.516943072       589.385845291         2.341333700         4.858276772         0.099349148
         5            0.500000         2.538165197       594.355373585         2.320096254         4.858261451         0.100467639
         6            0.600000         2.556862418       598.733652118         2.301385962         4.858248381         0.101554353
         7            0.700000         2.572828464       602.472378345         2.285409261         4.858237724         0.100017801
         8            0.800000         2.585895711       605.532300908         2.272333893         4.858229604         0.099872328
         9            0.900000         2.595937289       607.883710433         2.262286856         4.858224145         0.099666942
        10            1.000000         2.602868606       609.506798345         2.255352767         4.858221373         0.100027472
        11            1.100000         2.606648355       610.391892043         2.251572980         4.858221335         0.099646474
        12            1.200000         2.607278928       610.539551787         2.250945077         4.858224006         0.100117086
        13            1.300000         2.604806191       609.960517554         2.253423167         4.858229359         0.101634764
        14            1.400000         2.599318759       608.675540126         2.258918535         4.858237293         0.099488429
        15            1.500000         2.590946738       606.715086333         2.267300976         4.858247714         0.100162932
        16            1.600000         2.579859894       604.118909654         2.278400547         4.858260441         0.101469497
        17            1.700000         2.566265225       600.935482291         2.292010105         4.858275330         0.099948406
        18            1.800000         2.550404082       597.221320823         2.307888090         4.858292173         0.099892784
        19            1.900000         2.532548874       593.040214253         2.325761822         4.858310696         0.100516252
        20            2.000000         2.512999411       588.462368610         2.345331280         4.858330691         0.096591865
        21            2.100000         2.492078777       583.563439556         2.366273090         4.858351867         0.096632738
        22            2.200000         2.470128864       578.423487151         2.388245066         4.858373930         0.094091925
        23            2.300000         2.447505801       573.125904691         2.410890789         4.858396590         0.092675047
        24            2.400000         2.424575157       567.756297037         2.433844363         4.858419520         0.094226549
        25            2.500000         2.399445404       561.871729878         2.458997004         4.858442408         0.117723273
        26            2.600000         2.376976868       556.610332649         2.481488085         4.858464953         0.095227284
        27            2.700000         2.355307393       551.536049384         2.503179466         4.858486858         0.092710132
        28            2.800000         2.334790605       546.731687918         2.523717251         4.858507855         0.092075033
        29            2.900000         2.315765484       542.276626116         2.542762254         4.858527738         0.092001823
        30            3.000000         2.298553095       538.246046864         2.559993265         4.858546360         0.092408478
        31            3.100000         2.283335174       534.682507045         2.575229071         4.858564245         0.113933323
        32            3.200000         2.270608703       531.702383159         2.587969842         4.858578545         0.091720268
        33            3.300000         2.260468349       529.327843595         2.598123181         4.858591530         0.091404032
        34            3.400000         2.253119199       527.606912768         2.605482504         4.858601703         0.090913207
        35            3.500000         2.248726420       526.578267260         2.609882732         4.858609151         0.088331677
        36            3.600000         2.247412240       526.270529279         2.611201686         4.858613926         0.090675771
        37            3.700000         2.249255951       526.702266091         2.609360026         4.858615977         0.087072208
        38            3.800000         2.254293399       527.881872038         2.604321902         4.858615301         0.087155897
        39            3.900000         2.262516623       529.807482466         2.596095258         4.858611882         0.087243230
        40            4.000000         2.273873881       532.466981192         2.584731905         4.858605786         0.085754029
        41            4.100000         2.288270207       535.838130477         2.570326843         4.858597050         0.083004428
        42            4.200000         2.305568507       539.888827222         2.553017288         4.858585795         0.083303227
        43            4.300000         2.325591230       544.577494903         2.532980925         4.858572155         0.083296365
        44            4.400000         2.348122596       549.853604769         2.510433708         4.858556304         0.085176667
        45            4.500000         2.372911279       555.658304450         2.485627155         4.858538434         0.087515620
        46            4.600000         2.399673521       561.925147289         2.458845262         4.858518783         0.084222237
        47            4.700000         2.428096748       568.580938667         2.430400836         4.858497585         0.083585864
        48            4.800000         2.457843554       575.546668824         2.400631559         4.858475113         0.082081130
        49            4.900000         2.488555929       582.738503659         2.369895726         4.858451655         0.082383724
        50            5.000000         2.519859826       590.068853791         2.338567684         4.858427511         0.081204260
        51            5.100000         2.551369919       597.447488285         2.307033056         4.858402975         0.079776051
        52            5.200000         2.582694524       604.782687413         2.275683851         4.858378375         0.079641930
        53            5.300000         2.613440597       611.982413339         2.244913415         4.858354012         0.078741486
        54            5.400000         2.643218763       618.955487113         2.215111446         4.858330210         0.074598535
        55            5.500000         2.671648277       625.612750400         2.186658988         4.858307265         0.074426184
        56            5.600000         2.698361826       631.868190881         2.159923645         4.858285470         0.074819696
        57            5.700000         2.723010133       637.640019276         2.135254952         4.858265085         0.074786537
        58            5.800000         2.745266255       642.851676059         2.112980078         4.858246333         0.074699030
        59            5.900000         2.764829440       647.432734915         2.093399981         4.858229421         0.074937431
        60            6.000000         2.781428282       651.319641370         2.076786169         4.858214450         0.074606515
        61            6.100000         2.794823061       654.456261095         2.063378430         4.858201491         0.074563447
        62            6.200000         2.804807386       656.794263854         2.053383254         4.858190640         0.074755568
        63            6.300000         2.811210661       658.293701575         2.046971699         4.858182360         0.074347431
        64            6.400000         2.815237052       659.236550912         2.042940807         4.858177859         0.094830477
        65            6.500000         2.814241702       659.003472345         2.043933920         4.858175622         0.074271488
        66            6.600000         2.809550111       657.904854987         2.048625655         4.858175766         0.074282509
        67            6.700000         2.801168545       655.942166078         2.057010481         4.858179026         0.161000078
        68            6.800000         2.789150174       653.127856288         2.069035286         4.858185460         0.073600828
        69            6.900000         2.773596554       649.485706458         2.084598313         4.858194867         0.073724840
        70            7.000000         2.754655484       645.050326724         2.103551549         4.858207034         0.073517965
        71            7.100000         2.732517949       639.866439255         2.125703766         4.858221715         0.073998855
        72            7.200000         2.707414936       633.988133485         2.150823783         4.858238718         0.073391329
        73            7.300000         2.679614027       627.478068829         2.178643731         4.858257758         0.073641452
        74            7.400000         2.649415183       620.406486162         2.208863220         4.858278403         0.073620374
        75            7.500000         2.617138766       612.848403722         2.241158017         4.858296783         0.073672343
        76            7.600000         2.583068506       604.870261838         2.275251923         4.858320429         0.050847620
        77            7.700000         2.547888138       596.632168758         2.310461593         4.858349731         0.051272875
        78            7.800000         2.511634815       588.142824871         2.346740196         4.858375011         0.040038446
        79            7.900000         2.474846587       579.528223609         2.383554325         4.858400911         0.039844478
        80            8.000000         2.437933029       570.884274214         2.420493912         4.858426941         0.039826763
        81            8.100000         2.401305961       562.307411408         2.457146784         4.858452745         0.039699853
        82            8.200000         2.365373738       553.893258575         2.493104263         4.858478001         0.039742576
        83            8.300000         2.330536137       545.735430459         2.527966267         4.858502404         0.039913260
        84            8.400000         2.297179448       537.924383630         2.561346223         4.858525671         0.039722867
        85            8.500000         2.265671714       530.546301619         2.592875808         4.858547522         0.039665691
        86            8.600000         2.236358347       523.682068705         2.622209322         4.858567669         0.039799399
        87            8.700000         2.209557906       517.406280967         2.649027986         4.858585892         0.039924303
        88            8.800000         2.185558280       511.786352587         2.673043687         4.858601967         0.039914137
        89            8.900000         2.164613250       506.881710802         2.694002472         4.858615722         0.039603994
        90            9.000000         2.146939461       502.743086696         2.711687509         4.858626970         0.039693204
        91            9.100000         2.132713903       499.411925700         2.725921688         4.858635591         0.039712423
        92            9.200000         2.122071780       496.919888198         2.736569724         4.858641504         0.039687988
        93            9.300000         2.115104947       495.288483359         2.743539660         4.858644607         0.039590771
        94            9.400000         2.111860921       494.528838562         2.746783962         4.858644883         0.042891183
        95            9.500000         2.112342403       494.641585914         2.746299944         4.858642347         0.073280245
        96            9.600000         2.116507313       495.616871651         2.742129743         4.858637056         0.073306368
        97            9.700000         2.124269395       497.434497814         2.734359657         4.858629053         0.073476545
        98            9.800000         2.135499448       500.064209260         2.723119000         4.858618447         0.073146643
        99            9.900000         2.150027073       503.466104601         2.708578313         4.858605386         0.073660344
       100           10.000000         2.167642913       507.591158829         2.690947123         4.858590036         0.073161667
       101           10.100000         2.188101382       512.381864013         2.670471222         4.858572604         0.073653978
       102           10.200000         2.211123822       517.772967192         2.647429489         4.858553311         0.073487947
       103           10.300000         2.236402087       523.692311122         2.622130315         4.858532402         0.073657419
       104           10.400000         2.263602536       530.061767713         2.594907619         4.858510155         0.073412627
       105           10.500000         2.292370267       536.798230457         2.566116556         4.858486823         0.073479258
       106           10.600000         2.322333641       543.814673937         2.536129102         4.858462743         0.073387918
       107           10.700000         2.353109012       551.021260402         2.505329180         4.858438192         0.073386312
       108           10.800000         2.384305554       558.326471551         2.474107939         4.858413494         0.073615631
       109           10.900000         2.415530232       565.638271024         2.442858717         4.858388949         0.073456791
       110           11.000000         2.446392782       572.865272036         2.411972098         4.858364879         0.073612113
       111           11.100000         2.476510575       579.917875390         2.381831000         4.858341576         0.073404534
       112           11.200000         2.505513423       586.709394762         2.352805899         4.858319322         0.073604819
       113           11.300000         2.533048301       593.157163790         2.325250096         4.858298397         0.073462473
       114           11.400000         2.558783774       599.183570777         2.299495333         4.858279106         0.073562667
       115           11.500000         2.582414452       604.717103760         2.275847316         4.858261768         0.073495508
       116           11.600000         2.603548140       609.665923025         2.254698936         4.858247076         0.093953859
       117           11.700000         2.622221204       614.038544613         2.236009426         4.858230630         0.073640968
       118           11.800000         2.638026569       617.739644774         2.220196186         4.858222755         0.073744981
       119           11.900000         2.650805474       620.732046799         2.207409795         4.858215269         0.073532486
       120           12.000000         2.660443046       622.988851494         2.197766609         4.858209655         0.073320399
       121           12.100000         2.666854131       624.490118057         2.191352420         4.858206551         0.073342248
       122           12.200000         2.669993479       625.225250876         2.188212614         4.858206093         0.073637562
       123           12.300000         2.669858153       625.193561780         2.188350145         4.858208297         0.073272261
       124           12.400000         2.666487795       624.404334145         2.191725316         4.858213111         0.073683739
       125           12.500000         2.659964040       622.876683741         2.198256443         4.858220482         0.073726285
       126           12.600000         2.650409247       620.639263445         2.207821024         4.858230271         0.073709083
       127           12.700000         2.637984785       617.729860246         2.220257583         4.858242368         0.073699646
       128           12.800000         2.622888751       614.194862296         2.235367830         4.858256581         0.073463859
       129           12.900000         2.605353232       610.088616666         2.252919486         4.858272718         0.073230623
       130           13.000000         2.585641087       605.472676116         2.272649466         4.858290552         0.073142980
       131           13.100000         2.564042427       600.414975711         2.294267416         4.858309843         0.072636275
       132           13.200000         2.540870706       594.988915490         2.317459661         4.858330367         0.073258095
       133           13.300000         2.516458484       589.272370692         2.341893286         4.858351771         0.073582998
       134           13.400000         2.491153071       583.346669543         2.367220754         4.858373825         0.073277762
       135           13.500000         2.465311867       577.295503839         2.393084347         4.858396214         0.073412829
       136           13.600000         2.439297602       571.203812799         2.419121032         4.858418635         0.073610451
       137           13.700000         2.413473580       565.156670300         2.444967221         4.858440801         0.073643022
       138           13.800000         2.388198845       559.238153018         2.470263554         4.858462399         0.073662283
       139           13.900000         2.363823410       553.530222560         2.494659735         4.858483146         0.073632709
       140           14.000000         2.340683685       548.111654775         2.517819096         4.858502781         0.073911171
       141           14.100000         2.319098042       543.057002410         2.539422983         4.858521025         0.073603305
       142           14.200000         2.299362667       538.435622149         2.559174980         4.858537647         0.073506587
       143           14.300000         2.281747649       534.310760333         2.576804774         4.858552422         0.073471369
       144           14.400000         2.266493418       530.738717764         2.592071736         4.858565153         0.073666127
       145           14.500000         2.253807589       527.768111086         2.604768084         4.858575673         0.073822753
       146           14.600000         2.243862225       525.439231812         2.614721607         4.858583832         0.073664628
       147           14.700000         2.236791615       523.783525987         2.621797913         4.858589528         0.073524419
       148           14.800000         2.232690519       522.823183159         2.625902170         4.858592689         0.160889326
       149           14.900000         2.231612868       522.570832462         2.626980367         4.858593235         0.073308269
       150           15.000000         2.233571013       523.029366223         2.625020171         4.858591184         0.073564206
       151           15.100000         2.238535417       524.191867399         2.620051092         4.858586510         0.073696462
       152           15.200000         2.246434361       526.041541926         2.612144767         4.858579127         0.073588282
       153           15.300000         2.257152147       528.551297371         2.601416308         4.858568455         0.073519799
       154           15.400000         2.270636056       531.708788432         2.587919009         4.858555066         0.094387912
       155           15.500000         2.286507370       535.425331732         2.572031920         4.858539291         0.073741558
       156           15.600000         2.304666955       539.677713295         2.553855683         4.858522638         0.074038159
       157           15.700000         2.324852134       544.404422718         2.533652704         4.858504838         0.073579762
       158           15.800000         2.346779684       549.539138502         2.511705988         4.858485672         0.073550782
       159           15.900000         2.370144461       555.010406086         2.488320854         4.858465315         0.073512136
       160           16.000000         2.394621728       560.742182542         2.463822261         4.858443989         0.073707938
       161           16.100000         2.419871036       566.654745443         2.438550926         4.858421961         0.073691320
       162           16.200000         2.445540614       572.665722174         2.412858926         4.858399540         0.073741130
       163           16.300000         2.471271993       578.691170523         2.387105046         4.858377039         0.073646038
       164           16.400000         2.495948369       584.469571661         2.362406373         4.858354742         0.093942987
       165           16.500000         2.520732255       590.273148066         2.337600184         4.858332438         0.073448653
       166           16.600000         2.544532089       595.846291812         2.313778778         4.858310867         0.073763911
       167           16.700000         2.569884785       601.783065059         2.288405648         4.858290433         0.094065945
       168           16.800000         2.590686019       606.654034566         2.267585625         4.858271645         0.073454694
       169           16.900000         2.609521788       611.064756289         2.248732636         4.858254424         0.073633899
       170           17.000000         2.626114829       614.950304482         2.232124195         4.858239025         0.073535098
       171           17.100000         2.640216270       618.252401309         2.218009362         4.858225633         0.073638324
       172           17.200000         2.651608969       620.920199255         2.206605444         4.858214413         0.073685232
       173           17.300000         2.660110453       622.910969068         2.198095086         4.858205539         0.073743022
       174           17.400000         2.665575400       624.190681045         2.192623723         4.858199123         0.073638246
       175           17.500000         2.667897585       624.734460909         2.190297671         4.858195256         0.073589104
       176           17.600000         2.667011400       624.526945299         2.191182573         4.858193972         0.073702772
       177           17.700000         2.662892842       623.562513561         2.195302524         4.858195366         0.073568701
       178           17.800000         2.655559901       621.845378338         2.202639490         4.858199390         0.073463304
       179           17.900000         2.645072489       619.389569101         2.213133507         4.858205996         0.073417344
       180           18.000000         2.631531840       616.218791396         2.226683292         4.858215132         0.073417329
       181           18.100000         2.615079327       612.366150219         2.243147346         4.858226672         0.073420941
       182           18.200000         2.595894758       607.873750906         2.262345733         4.858240491         0.073501715
       183           18.300000         2.574194284       602.792208770         2.284062141         4.858256425         0.073528866
       184           18.400000         2.550227735       597.180025997         2.308046553         4.858274288         0.073552117
       185           18.500000         2.524275575       591.102878033         2.334018253         4.858293829         0.073478777
       186           18.600000         2.496645515       584.632820576         2.361669380         4.858314895         0.073456838
       187           18.700000         2.467668738       577.847405856         2.390668429         4.858337167         0.073406550
       188           18.800000         2.437695946       570.828757257         2.420664445         4.858360391         0.073466867
       189           18.900000         2.407093050       563.662558535         2.451291261         4.858384310         0.073432710
       190           19.000000         2.376236689       556.437006967         2.482171931         4.858408620         0.073565405
       191           19.100000         2.345509583       549.241722559         2.512923413         4.858432996         0.073517978
       192           19.200000         2.315295365       542.166539602         2.543161680         4.858457045         0.073627035
       193           19.300000         2.285973040       535.300208884         2.572507379         4.858480419         0.073625535
       194           19.400000         2.257911450       528.729101363         2.600591327         4.858502777         0.073562744
       195           19.500000         2.231464248       522.536030635         2.627059633         4.858523882         0.073612164
       196           19.600000         2.206965895       516.799316607         2.651577662         4.858543557         0.073584282
       197           19.700000         2.184728309       511.592000402         2.673833312         4.858561621         0.073688268
       198           19.800000         2.165037584       506.981075957         2.693540269         4.858577853         0.073557177
       199           19.900000         2.148150665       503.026711042         2.710441409         4.858592074         0.073699084
       200           20.000000         2.134292099       499.781487568         2.724311976         4.858604075         0.073605775
