#     Step Nr.          Time[fs]        Kin.[a.u.]          Temp[K]            Pot.[a.u.]        Cons Qty[a.u.]        UsedTime[s]
         0            0.000000         0.393255336       335.168867385         0.335647639         0.728902975         0.000000000
         1            0.100000         0.393376734       335.272333725         0.335526254         0.728902988         0.049018283
         2            0.200000         0.393535269       335.407452415         0.335367683         0.728902952         0.021071438
         3            0.300000         0.393730400       335.573760583         0.335172470         0.728902869         0.023489169
         4            0.400000         0.393960825       335.770150428         0.334941917         0.728902742         0.009696999
         5            0.500000         0.394224511       335.994888742         0.334678058         0.728902570         0.022115775
         6            0.600000         0.394518726       336.245646145         0.334383631         0.728902357         0.022515630
         7            0.700000         0.394840082       336.519535754         0.334062024         0.728902107         0.024220816
         8            0.800000         0.395184589       336.813156264         0.333717234         0.728901823         0.008562435
         9            0.900000         0.395547712       337.122644056         0.333353797         0.728901509         0.022985533
        10            1.000000         0.395924447       337.443732563         0.332976724         0.728901171         0.023191346
        11            1.100000         0.396309388       337.771814979         0.332591425         0.728900813         0.023615352
        12            1.200000         0.396696809       338.102011399         0.332203631         0.728900441         0.008078273
        13            1.300000         0.397080748       338.429240288         0.331819310         0.728900059         0.024830800
        14            1.400000         0.397455096       338.748293825         0.331444578         0.728899674         0.020483393
        15            1.500000         0.397813682       339.053914247         0.331085609         0.728899291         0.017750091
        16            1.600000         0.398150369       339.340870999         0.330748546         0.728898916         0.022880331
        17            1.700000         0.398459144       339.604037858         0.330439410         0.728898554         0.009220818
        18            1.800000         0.398734203       339.838468496         0.330164008         0.728898211         0.022139440
        19            1.900000         0.398970040       340.039470412         0.329927853         0.728897893         0.020848216
        20            2.000000         0.399161526       340.202673247         0.329736076         0.728897602         0.009664346
        21            2.100000         0.399303990       340.324094187         0.329593354         0.728897344         0.023410486
        22            2.200000         0.399393286       340.400200461         0.329503838         0.728897124         0.021481479
        23            2.300000         0.399425861       340.427964307         0.329471082         0.728896944         0.007718016
        24            2.400000         0.399398813       340.404911146         0.329497995         0.728896808         0.023165525
        25            2.500000         0.399309933       340.329159423         0.329586784         0.728896718         0.022277286
        26            2.600000         0.399157748       340.199452654         0.329738927         0.728896675         0.022467929
        27            2.700000         0.398941545       340.015184463         0.329955136         0.728896681         0.006601337
        28            2.800000         0.398661399       339.776418202         0.330235339         0.728896738         0.023743531
        29            2.900000         0.398318177       339.483892474         0.330578666         0.728896843         0.021355471
        30            3.000000         0.397913537       339.139020132         0.330983461         0.728896998         0.010683028
        31            3.100000         0.397449919       338.743881542         0.331447281         0.728897199         0.021427258
        32            3.200000         0.396930525       338.301205616         0.331966922         0.728897446         0.021802545
        33            3.300000         0.396359284       337.814341346         0.332538452         0.728897736         0.008599225
        34            3.400000         0.395740815       337.287224188         0.333157250         0.728898065         0.021762327
        35            3.500000         0.395080370       336.724331221         0.333818060         0.728898430         0.022869597
        36            3.600000         0.394383777       336.130629944         0.334515050         0.728898827         0.006945055
        37            3.700000         0.393657378       335.511524439         0.335241873         0.728899251         0.022544526
        38            3.800000         0.392907947       334.872789652         0.335991749         0.728899696         0.021372623
        39            3.900000         0.392142616       334.220503665         0.336757540         0.728900157         0.024115113
        40            4.000000         0.391368786       333.560973274         0.337531844         0.728900630         0.007157298
        41            4.100000         0.390594037       332.900660306         0.338307071         0.728901109         0.023218005
        42            4.200000         0.389826047       332.246106860         0.339075541         0.728901587         0.021636532
        43            4.300000         0.389072488       331.603854226         0.339829571         0.728902059         0.009705435
        44            4.400000         0.388340942       330.980362239         0.340561577         0.728902519         0.020072720
        45            4.500000         0.387638800       330.381931263         0.341264163         0.728902963         0.020902436
        46            4.600000         0.386973173       329.814621772         0.341930209         0.728903381         0.008580172
        47            4.700000         0.386350803       329.284180339         0.342552969         0.728903772         0.020910701
        48            4.800000         0.385777979       328.795966019         0.343126150         0.728904129         0.022921547
        49            4.900000         0.385260451       328.354880917         0.343643996         0.728904447         0.006944107
        50            5.000000         0.384803367       327.965311077         0.344101356         0.728904723         0.023734742
        51            5.100000         0.384411196       327.631066272         0.344493756         0.728904952         0.006551881
        52            5.200000         0.384087672       327.355328996         0.344817461         0.728905133         0.023506735
        53            5.300000         0.383835743       327.140611705         0.345069518         0.728905261         0.021398269
        54            5.400000         0.383657530       326.988722068         0.345247805         0.728905335         0.022254982
        55            5.500000         0.383554296       326.900736271         0.345351059         0.728905355         0.006636073
        56            5.600000         0.383526423       326.876980012         0.345378896         0.728905318         0.021333104
        57            5.700000         0.383573400       326.917018396         0.345331826         0.728905226         0.008470811
        58            5.800000         0.383693825       327.019655467         0.345211253         0.728905077         0.021572362
        59            5.900000         0.383885409       327.182941367         0.345019467         0.728904875         0.020847452
        60            6.000000         0.384145000       327.404189571         0.344759621         0.728904621         0.006557894
        61            6.100000         0.384468614       327.680003514         0.344435703         0.728904318         0.023442666
        62            6.200000         0.384851472       328.006310404         0.344052496         0.728903967         0.019448987
        63            6.300000         0.385288051       328.378404018         0.343615523         0.728903574         0.010243460
        64            6.400000         0.385772146       328.790995032         0.343130996         0.728903142         0.021006939
        65            6.500000         0.386296933       329.238266798         0.342605744         0.728902676         0.022713010
        66            6.600000         0.386855041       329.713939000         0.342047141         0.728902182         0.006903188
        67            6.700000         0.387438638       330.211334446         0.341463026         0.728901664         0.022489666
        68            6.800000         0.388039510       330.723453414         0.340861618         0.728901127         0.021118142
        69            6.900000         0.388649160       331.243054303         0.340251419         0.728900579         0.008271486
        70            7.000000         0.389258901       331.762732914         0.339641124         0.728900025         0.021972165
        71            7.100000         0.389859953       332.275004841         0.339039519         0.728899472         0.006924031
        72            7.200000         0.390443537       332.772390188         0.338455387         0.728898924         0.022230834
        73            7.300000         0.391000986       333.247499500         0.337897404         0.728898390         0.020570566
        74            7.400000         0.391523828       333.693114250         0.337374046         0.728897874         0.009249653
        75            7.500000         0.392003890       334.102268506         0.336893492         0.728897383         0.021119378
        76            7.600000         0.392433393       334.468330390         0.336463528         0.728896921         0.022135759
        77            7.700000         0.392805032       334.785076172         0.336091462         0.728896495         0.006719086
        78            7.800000         0.393112069       335.046761518         0.335784038         0.728896107         0.023379667
        79            7.900000         0.393348398       335.248182956         0.335547366         0.728895764         0.020002551
        80            8.000000         0.393508619       335.384738093         0.335386851         0.728895470         0.009947889
        81            8.100000         0.393588101       335.452480072         0.335307126         0.728895226         0.020161228
        82            8.200000         0.393583032       335.448160558         0.335312004         0.728895037         0.021963133
        83            8.300000         0.393490468       335.369268414         0.335404435         0.728894903         0.007620456
        84            8.400000         0.393308359       335.214057913         0.335586468         0.728894826         0.022438307
        85            8.500000         0.393035575       334.981566712         0.335859234         0.728894809         0.022480738
        86            8.600000         0.392671921       334.671626521         0.336222929         0.728894850         0.008154229
        87            8.700000         0.392218135       334.284867645         0.336676814         0.728894949         0.020422481
        88            8.800000         0.391675888       333.822713979         0.337219217         0.728895105         0.007030382
        89            8.900000         0.391047759       333.287364100         0.337847556         0.728895315         0.022237831
        90            9.000000         0.390337208       332.681766090         0.338558370         0.728895578         0.020099650
        91            9.100000         0.389548534       332.009584857         0.339347356         0.728895891         0.008907023
        92            9.200000         0.388686830       331.275160518         0.340209419         0.728896249         0.019989780
        93            9.300000         0.387757927       330.483462273         0.341138723         0.728896650         0.022236036
        94            9.400000         0.386768327       329.640033175         0.342128761         0.728897088         0.008439280
        95            9.500000         0.385725137       328.750929013         0.343172422         0.728897559         0.021671007
        96            9.600000         0.384635985       327.822652288         0.344262073         0.728898057         0.022402611
        97            9.700000         0.383508941       326.862080405         0.345389637         0.728898578         0.007285750
        98            9.800000         0.382352426       325.876390781         0.346546688         0.728899115         0.021721630
        99            9.900000         0.381175123       324.872982889         0.347724540         0.728899662         0.006414057
       100           10.000000         0.379985877       323.859397151         0.348914337         0.728900214         0.023273976
       101           10.100000         0.378793607       322.843233230         0.350107157         0.728900764         0.020902040
       102           10.200000         0.377607203       321.832068990         0.351294104         0.728901307         0.008744850
       103           10.300000         0.376435435       320.833379452         0.352466401         0.728901836         0.021618889
       104           10.400000         0.375286863       319.854458962         0.353615484         0.728902347         0.021749161
       105           10.500000         0.374169746       318.902347576         0.354733089         0.728902835         0.008432752
       106           10.600000         0.373091960       317.983758317         0.355811333         0.728903293         0.021557016
       107           10.700000         0.372060922       317.105011118         0.356842795         0.728903717         0.023085966
       108           10.800000         0.371083509       316.271968341         0.357820595         0.728904104         0.007219812
       109           10.900000         0.370165992       315.489975020         0.358738458         0.728904450         0.021795096
       110           11.000000         0.369313983       314.763813229         0.359590770         0.728904752         0.020908592
       111           11.100000         0.368532383       314.097660880         0.360372625         0.728905008         0.010251138
       112           11.200000         0.367825342       313.495055159         0.361079872         0.728905214         0.020450071
       113           11.300000         0.367196228       312.958864916         0.361709142         0.728905370         0.023385419
       114           11.400000         0.366647597       312.491270538         0.362257878         0.728905475         0.007515065
       115           11.500000         0.366181189       312.093754057         0.362724340         0.728905529         0.022416240
       116           11.600000         0.365797922       311.767098622         0.363107610         0.728905532         0.021982220
       117           11.700000         0.365497905       311.511395752         0.363407580         0.728905485         0.022556986
       118           11.800000         0.365280449       311.326060029         0.363624940         0.728905389         0.007724240
       119           11.900000         0.365144099       311.209850007         0.363761150         0.728905249         0.021459852
       120           12.000000         0.365086666       311.160900147         0.363818400         0.728905066         0.022917269
       121           12.100000         0.365105276       311.176761336         0.363799568         0.728904844         0.008009642
       122           12.200000         0.365196421       311.254443364         0.363708165         0.728904586         0.021804536
       123           12.300000         0.365356016       311.390465445         0.363548280         0.728904297         0.007878841
       124           12.400000         0.365579471       311.580914389         0.363324509         0.728903981         0.021703533
       125           12.500000         0.365861756       311.821503900         0.363041886         0.728903642         0.021633435
       126           12.600000         0.366197480       312.107639143         0.362705805         0.728903285         0.009064827
       127           12.700000         0.366580972       312.434486390         0.362321944         0.728902916         0.021607102
       128           12.800000         0.367006359       312.797040967         0.361896180         0.728902538         0.021765150
       129           12.900000         0.367467649       313.190195622         0.361434511         0.728902160         0.022397378
       130           13.000000         0.367958815       313.608812673         0.360942971         0.728901785         0.008560079
       131           13.100000         0.368473876       314.047795742         0.360427543         0.728901419         0.021127298
       132           13.200000         0.369006982       314.502158551         0.359894084         0.728901066         0.022457227
       133           13.300000         0.369552490       314.967091122         0.359348240         0.728900730         0.008673252
       134           13.400000         0.370105035       315.438021652         0.358795381         0.728900415         0.021955919
       135           13.500000         0.370659599       315.910673084         0.358240529         0.728900128         0.021577721
       136           13.600000         0.371211574       316.381117739         0.357688295         0.728899869         0.010034708
       137           13.700000         0.371756815       316.845822568         0.357142828         0.728899643         0.022098763
       138           13.800000         0.372291687       317.301690538         0.356607765         0.728899452         0.021900720
       139           13.900000         0.372813112       317.746097657         0.356086186         0.728899298         0.008762808
       140           14.000000         0.373318590       318.176912944         0.355580591         0.728899181         0.023680870
       141           14.100000         0.373806223       318.592519842         0.355092880         0.728899104         0.021037425
       142           14.200000         0.374274738       318.991831533         0.354624326         0.728899064         0.023920594
       143           14.300000         0.374723479       319.374290256         0.354175586         0.728899064         0.006819776
       144           14.400000         0.375152407       319.739863193         0.353746695         0.728899102         0.023321582
       145           14.500000         0.375562088       320.089031602         0.353337088         0.728899177         0.021221678
       146           14.600000         0.375953666       320.422770434         0.352945618         0.728899284         0.024007288
       147           14.700000         0.376328827       320.742517937         0.352570597         0.728899425         0.006983150
       148           14.800000         0.376689764       321.050142084         0.352209830         0.728899594         0.025598870
       149           14.900000         0.377039127       321.347901907         0.351860661         0.728899788         0.022964095
       150           15.000000         0.377379969       321.638399034         0.351520035         0.728900004         0.021662580
       151           15.100000         0.377715683       321.924525394         0.351184554         0.728900237         0.007951899
       152           15.200000         0.378049935       322.209406345         0.350850548         0.728900483         0.024863849
       153           15.300000         0.378386597       322.496341042         0.350514139         0.728900736         0.020650678
       154           15.400000         0.378729666       322.788737000         0.350171326         0.728900992         0.024682933
       155           15.500000         0.379083193       323.090045299         0.349818055         0.728901248         0.008176111
       156           15.600000         0.379451202       323.403696762         0.349450295         0.728901497         0.025468490
       157           15.700000         0.379837615       323.733034094         0.349064119         0.728901734         0.019953707
       158           15.800000         0.380246174       324.081245981         0.348655781         0.728901954         0.009020790
       159           15.900000         0.380680364       324.451303040         0.348221791         0.728902155         0.022499369
       160           16.000000         0.381143342       324.845896186         0.347758988         0.728902330         0.024668164
       161           16.100000         0.381637869       325.267378641         0.347264607         0.728902476         0.020250049
       162           16.200000         0.382166248       325.717712089         0.346736343         0.728902590         0.007693169
       163           16.300000         0.382730262       326.198417431         0.346172407         0.728902668         0.024429311
       164           16.400000         0.383331129       326.710532735         0.345571578         0.728902708         0.020503758
       165           16.500000         0.383969458       327.254575742         0.344933249         0.728902706         0.010323588
       166           16.600000         0.384645211       327.830515352         0.344257453         0.728902664         0.021296537
       167           16.700000         0.385357681       328.437749213         0.343544896         0.728902577         0.025464947
       168           16.800000         0.386105475       329.075088742         0.342796971         0.728902446         0.020731036
       169           16.900000         0.386886505       329.740755312         0.342015766         0.728902271         0.008952732
       170           17.000000         0.387697991       330.432379608         0.341204062         0.728902053         0.023791228
       171           17.100000         0.388536472       331.147011212         0.340365322         0.728901794         0.025638420
       172           17.200000         0.389397829       331.881139545         0.339503668         0.728901496         0.021407600
       173           17.300000         0.390277315       332.630719817         0.338623846         0.728901161         0.024786434
       174           17.400000         0.391169599       333.391207395         0.337731193         0.728900791         0.008744567
       175           17.500000         0.392068813       334.157601756         0.336831579         0.728900392         0.021585160
       176           17.600000         0.392968614       334.924495714         0.335931353         0.728899967         0.024411635
       177           17.700000         0.393862245       335.686131482         0.335037275         0.728899520         0.024579713
       178           17.800000         0.394742612       336.436462775         0.334156444         0.728899057         0.009038794
       179           17.900000         0.395602363       337.169222178         0.333296219         0.728898582         0.021227648
       180           18.000000         0.396433968       337.877993331         0.332464135         0.728898103         0.025080658
       181           18.100000         0.397229811       338.556284952         0.331667812         0.728897623         0.020919282
       182           18.200000         0.397982281       339.197610037         0.330914868         0.728897149         0.009519839
       183           18.300000         0.398683862       339.795563235         0.330212826         0.728896688         0.022928703
       184           18.400000         0.399327231       340.343901902         0.329569015         0.728896245         0.026005271
       185           18.500000         0.399905349       340.836628642         0.328990478         0.728895827         0.020202588
       186           18.600000         0.400411562       341.268070310         0.328483876         0.728895438         0.009535008
       187           18.700000         0.400839685       341.632956603         0.328055400         0.728895085         0.023230979
       188           18.800000         0.401184090       341.926490980         0.327710683         0.728894774         0.023157246
       189           18.900000         0.401439789       342.144421421         0.327454718         0.728894507         0.009427666
       190           19.000000         0.401602507       342.283104251         0.327291786         0.728894293         0.008712485
       191           19.100000         0.401668738       342.339552838         0.327225392         0.728894130         0.010888694
       192           19.200000         0.401635805       342.311484315         0.327258216         0.728894022         0.021716732
       193           19.300000         0.401501895       342.197353250         0.327392076         0.728893970         0.010759456
       194           19.400000         0.401266074       341.996364997         0.327627900         0.728893974         0.025517530
       195           19.500000         0.401002373       341.771614676         0.327891551         0.728893925         0.024205358
       196           19.600000         0.400638928       341.461852917         0.328255015         0.728893943         0.021353737
       197           19.700000         0.400176446       341.067682523         0.328717586         0.728894033         0.007807425
       198           19.800000         0.399616677       340.590595126         0.329277511         0.728894188         0.021628036
       199           19.900000         0.398962396       340.032955611         0.329932010         0.728894405         0.025259259
       200           20.000000         0.398217365       339.397970643         0.330677321         0.728894686         0.025209075
