 DBCSR| Multiplication driver                                               XSMM
 DBCSR| Multrec recursion limit                                              512
 DBCSR| Multiplication stack size                                           1000
 DBCSR| Maximum elements for images                                    UNLIMITED
 DBCSR| Randmat seed                                                    12341313
 DBCSR| Multiplication size stacks                                             3


  **** **** ******  **  PROGRAM STARTED AT               2021-02-12 16:43:36.160
 ***** ** ***  *** **   PROGRAM STARTED ON               bulstake.phys.ucl.ac.uk
 **    ****   ******    PROGRAM STARTED BY                             sgiannini
 ***** **    ** ** **   PROGRAM PROCESS ID                                  3501
  **** **  *******  **  PROGRAM STARTED IN /scratch/sgiannini/FOB-SH-REGTESTS_/3
                                           3-XXX_code_extension_V2/run-fssh-3NAP
                                           -3ANT-actANT-2FF

 CP2K| version string:                    CP2K version 4.0 (Development Version)
 CP2K| source code revision number:                                  git:cfe3005
 CP2K| cp2kflags: libint fftw3 libxc quip smm_dnn smm libxsmm libderiv_max_am1=5
 CP2K|             libint_max_am=6
 CP2K| is freely available from                            https://www.cp2k.org/
 CP2K| Program compiled at                          Fri 12 Feb 16:41:38 GMT 2021
 CP2K| Program compiled on                               bulstake.phys.ucl.ac.uk
 CP2K| Program compiled for                                                local
 CP2K| Data directory path           /scratch/sgiannini/flavoured-cptk/cp2k/data
 CP2K| Input file name                                                   run.inp

 GLOBAL| Force Environment number                                              1
 GLOBAL| Basis set file name                                           POTENTIAL
 GLOBAL| MM Potential file name                                     MM_POTENTIAL
 GLOBAL| Coordinate file name                                       pos-init.xyz
 GLOBAL| Force Environment number                                              2
 GLOBAL| Basis set file name                                           POTENTIAL
 GLOBAL| MM Potential file name                                     MM_POTENTIAL
 GLOBAL| Coordinate file name                                       pos-init.xyz
 GLOBAL| Force Environment number                                              3
 GLOBAL| Basis set file name                                           POTENTIAL
 GLOBAL| MM Potential file name                                     MM_POTENTIAL
 GLOBAL| Coordinate file name                                       pos-init.xyz
 GLOBAL| Method name                                                        CP2K
 GLOBAL| Project name                                                        run
 GLOBAL| Preferred FFT library                                             FFTW3
 GLOBAL| Preferred diagonalization lib.                                       SL
 GLOBAL| Run type                                                             MD
 GLOBAL| All-to-all communication in single precision                          F
 GLOBAL| FFTs using library dependent lengths                                  F
 GLOBAL| Global print level                                                  LOW
 GLOBAL| Total number of message passing processes                             1
 GLOBAL| Number of threads for this process                                    1
 GLOBAL| This output is from process                                           0
 GLOBAL| CPU model name :  Intel(R) Xeon(R) CPU E5-2687W v4 @ 3.00GHz

 MEMORY| system memory details [Kb]
 MEMORY|                        rank 0           min           max       average
 MEMORY| MemTotal             65894336      65894336      65894336      65894336
 MEMORY| MemFree               3428216       3428216       3428216       3428216
 MEMORY| Buffers                  9680          9680          9680          9680
 MEMORY| Cached               50526072      50526072      50526072      50526072
 MEMORY| Slab                  2053704       2053704       2053704       2053704
 MEMORY| SReclaimable          1717764       1717764       1717764       1717764
 MEMORY| MemLikelyFree        55681732      55681732      55681732      55681732

 TOTAL NUMBER OF FORCE EVALS           3
 NOTE:n_subforce_eval           2
          ----------------------------------------------------------------------
 COLVARS| COLVAR INPUT INDEX:        1
 COLVARS| BOND          >>> POINTS:                                    1       2
 COLVARS| INFORMATION ON DEFINED GEOMETRICAL POINTS
 COLVARS|  POINT Nr.     1 OF TYPE: GEO_CENTER
 COLVARS|   ATOMS BUILDING THE GEOMETRICAL POINT
 COLVARS|   ATOM:         1
 COLVARS|   ATOM:         2
 COLVARS|   ATOM:         3
 COLVARS|   ATOM:        10
 COLVARS|   ATOM:        12
 COLVARS|   ATOM:         5
 COLVARS|  POINT Nr.     2 OF TYPE: FIX_POINT
 COLVARS|   XYZ POSITION OF FIXED POINT:       -0.000913   -0.004945    2.313156
          ----------------------------------------------------------------------
          ----------------------------------------------------------------------
 COLVARS| COLVAR INPUT INDEX:        2
 COLVARS| BOND          >>> POINTS:                                    1       2
 COLVARS| INFORMATION ON DEFINED GEOMETRICAL POINTS
 COLVARS|  POINT Nr.     1 OF TYPE: GEO_CENTER
 COLVARS|   ATOMS BUILDING THE GEOMETRICAL POINT
 COLVARS|   ATOM:         3
 COLVARS|   ATOM:         4
 COLVARS|   ATOM:        11
 COLVARS|   ATOM:        14
 COLVARS|   ATOM:        13
 COLVARS|   ATOM:        10
 COLVARS|  POINT Nr.     2 OF TYPE: FIX_POINT
 COLVARS|   XYZ POSITION OF FIXED POINT:        0.000913    0.004945   -2.313156
          ----------------------------------------------------------------------
          ----------------------------------------------------------------------
 COLVARS| COLVAR INPUT INDEX:        3
 COLVARS| BOND          >>> POINTS:                                    1       2
 COLVARS| INFORMATION ON DEFINED GEOMETRICAL POINTS
 COLVARS|  POINT Nr.     1 OF TYPE: GEO_CENTER
 COLVARS|   ATOMS BUILDING THE GEOMETRICAL POINT
 COLVARS|   ATOM:        19
 COLVARS|   ATOM:        20
 COLVARS|   ATOM:        21
 COLVARS|   ATOM:        28
 COLVARS|   ATOM:        30
 COLVARS|   ATOM:        23
 COLVARS|  POINT Nr.     2 OF TYPE: FIX_POINT
 COLVARS|   XYZ POSITION OF FIXED POINT:        9.447737   -0.004945    2.313156
          ----------------------------------------------------------------------
          ----------------------------------------------------------------------
 COLVARS| COLVAR INPUT INDEX:        4
 COLVARS| BOND          >>> POINTS:                                    1       2
 COLVARS| INFORMATION ON DEFINED GEOMETRICAL POINTS
 COLVARS|  POINT Nr.     1 OF TYPE: GEO_CENTER
 COLVARS|   ATOMS BUILDING THE GEOMETRICAL POINT
 COLVARS|   ATOM:        21
 COLVARS|   ATOM:        22
 COLVARS|   ATOM:        29
 COLVARS|   ATOM:        32
 COLVARS|   ATOM:        31
 COLVARS|   ATOM:        28
 COLVARS|  POINT Nr.     2 OF TYPE: FIX_POINT
 COLVARS|   XYZ POSITION OF FIXED POINT:        9.449563    0.004945   -2.313156
          ----------------------------------------------------------------------
          ----------------------------------------------------------------------
 COLVARS| COLVAR INPUT INDEX:        5
 COLVARS| BOND          >>> POINTS:                                    1       2
 COLVARS| INFORMATION ON DEFINED GEOMETRICAL POINTS
 COLVARS|  POINT Nr.     1 OF TYPE: GEO_CENTER
 COLVARS|   ATOMS BUILDING THE GEOMETRICAL POINT
 COLVARS|   ATOM:        37
 COLVARS|   ATOM:        38
 COLVARS|   ATOM:        39
 COLVARS|   ATOM:        46
 COLVARS|   ATOM:        48
 COLVARS|   ATOM:        41
 COLVARS|  POINT Nr.     2 OF TYPE: FIX_POINT
 COLVARS|   XYZ POSITION OF FIXED POINT:       18.896387   -0.004945    2.313156
          ----------------------------------------------------------------------
          ----------------------------------------------------------------------
 COLVARS| COLVAR INPUT INDEX:        6
 COLVARS| BOND          >>> POINTS:                                    1       2
 COLVARS| INFORMATION ON DEFINED GEOMETRICAL POINTS
 COLVARS|  POINT Nr.     1 OF TYPE: GEO_CENTER
 COLVARS|   ATOMS BUILDING THE GEOMETRICAL POINT
 COLVARS|   ATOM:        39
 COLVARS|   ATOM:        40
 COLVARS|   ATOM:        47
 COLVARS|   ATOM:        50
 COLVARS|   ATOM:        49
 COLVARS|   ATOM:        46
 COLVARS|  POINT Nr.     2 OF TYPE: FIX_POINT
 COLVARS|   XYZ POSITION OF FIXED POINT:       18.898213    0.004945   -2.313156
          ----------------------------------------------------------------------
          ----------------------------------------------------------------------
 COLVARS| COLVAR INPUT INDEX:        7
 COLVARS| BOND          >>> POINTS:                                    1       2
 COLVARS| INFORMATION ON DEFINED GEOMETRICAL POINTS
 COLVARS|  POINT Nr.     1 OF TYPE: GEO_CENTER
 COLVARS|   ATOMS BUILDING THE GEOMETRICAL POINT
 COLVARS|   ATOM:        55
 COLVARS|   ATOM:        56
 COLVARS|   ATOM:        57
 COLVARS|   ATOM:        59
 COLVARS|   ATOM:        60
 COLVARS|   ATOM:        61
 COLVARS|  POINT Nr.     2 OF TYPE: FIX_POINT
 COLVARS|   XYZ POSITION OF FIXED POINT:       28.351777   -0.009071    4.632012
          ----------------------------------------------------------------------
          ----------------------------------------------------------------------
 COLVARS| COLVAR INPUT INDEX:        8
 COLVARS| BOND          >>> POINTS:                                    1       2
 COLVARS| INFORMATION ON DEFINED GEOMETRICAL POINTS
 COLVARS|  POINT Nr.     1 OF TYPE: GEO_CENTER
 COLVARS|   ATOMS BUILDING THE GEOMETRICAL POINT
 COLVARS|   ATOM:        67
 COLVARS|   ATOM:        70
 COLVARS|   ATOM:        73
 COLVARS|   ATOM:        75
 COLVARS|   ATOM:        72
 COLVARS|   ATOM:        69
 COLVARS|  POINT Nr.     2 OF TYPE: FIX_POINT
 COLVARS|   XYZ POSITION OF FIXED POINT:       28.340123    0.009071   -4.632012
          ----------------------------------------------------------------------
          ----------------------------------------------------------------------
 COLVARS| COLVAR INPUT INDEX:        9
 COLVARS| BOND          >>> POINTS:                                    1       2
 COLVARS| INFORMATION ON DEFINED GEOMETRICAL POINTS
 COLVARS|  POINT Nr.     1 OF TYPE: GEO_CENTER
 COLVARS|   ATOMS BUILDING THE GEOMETRICAL POINT
 COLVARS|   ATOM:        79
 COLVARS|   ATOM:        80
 COLVARS|   ATOM:        81
 COLVARS|   ATOM:        83
 COLVARS|   ATOM:        84
 COLVARS|   ATOM:        85
 COLVARS|  POINT Nr.     2 OF TYPE: FIX_POINT
 COLVARS|   XYZ POSITION OF FIXED POINT:       37.800427   -0.009071    4.632012
          ----------------------------------------------------------------------
          ----------------------------------------------------------------------
 COLVARS| COLVAR INPUT INDEX:       10
 COLVARS| BOND          >>> POINTS:                                    1       2
 COLVARS| INFORMATION ON DEFINED GEOMETRICAL POINTS
 COLVARS|  POINT Nr.     1 OF TYPE: GEO_CENTER
 COLVARS|   ATOMS BUILDING THE GEOMETRICAL POINT
 COLVARS|   ATOM:        91
 COLVARS|   ATOM:        94
 COLVARS|   ATOM:        97
 COLVARS|   ATOM:        99
 COLVARS|   ATOM:        96
 COLVARS|   ATOM:        93
 COLVARS|  POINT Nr.     2 OF TYPE: FIX_POINT
 COLVARS|   XYZ POSITION OF FIXED POINT:       37.788773    0.009071   -4.632012
          ----------------------------------------------------------------------
          ----------------------------------------------------------------------
 COLVARS| COLVAR INPUT INDEX:       11
 COLVARS| BOND          >>> POINTS:                                    1       2
 COLVARS| INFORMATION ON DEFINED GEOMETRICAL POINTS
 COLVARS|  POINT Nr.     1 OF TYPE: GEO_CENTER
 COLVARS|   ATOMS BUILDING THE GEOMETRICAL POINT
 COLVARS|   ATOM:       103
 COLVARS|   ATOM:       104
 COLVARS|   ATOM:       105
 COLVARS|   ATOM:       107
 COLVARS|   ATOM:       108
 COLVARS|   ATOM:       109
 COLVARS|  POINT Nr.     2 OF TYPE: FIX_POINT
 COLVARS|   XYZ POSITION OF FIXED POINT:       47.249077   -0.009071    4.632012
          ----------------------------------------------------------------------
          ----------------------------------------------------------------------
 COLVARS| COLVAR INPUT INDEX:       12
 COLVARS| BOND          >>> POINTS:                                    1       2
 COLVARS| INFORMATION ON DEFINED GEOMETRICAL POINTS
 COLVARS|  POINT Nr.     1 OF TYPE: GEO_CENTER
 COLVARS|   ATOMS BUILDING THE GEOMETRICAL POINT
 COLVARS|   ATOM:       115
 COLVARS|   ATOM:       118
 COLVARS|   ATOM:       121
 COLVARS|   ATOM:       123
 COLVARS|   ATOM:       120
 COLVARS|   ATOM:       117
 COLVARS|  POINT Nr.     2 OF TYPE: FIX_POINT
 COLVARS|   XYZ POSITION OF FIXED POINT:       47.237423    0.009071   -4.632012
          ----------------------------------------------------------------------
 RESTRAINT| Active restraint on COLLECTIVE section Nr.     1. K [a.u.]= 0.005000
 RESTRAINT| Active restraint on COLLECTIVE section Nr.     2. K [a.u.]= 0.005000
 RESTRAINT| Active restraint on COLLECTIVE section Nr.     3. K [a.u.]= 0.005000
 RESTRAINT| Active restraint on COLLECTIVE section Nr.     4. K [a.u.]= 0.005000
 RESTRAINT| Active restraint on COLLECTIVE section Nr.     5. K [a.u.]= 0.005000
 RESTRAINT| Active restraint on COLLECTIVE section Nr.     6. K [a.u.]= 0.005000
 RESTRAINT| Active restraint on COLLECTIVE section Nr.     7. K [a.u.]= 0.005000
 RESTRAINT| Active restraint on COLLECTIVE section Nr.     8. K [a.u.]= 0.005000
 RESTRAINT| Active restraint on COLLECTIVE section Nr.     9. K [a.u.]= 0.005000
 RESTRAINT| Active restraint on COLLECTIVE section Nr.    10. K [a.u.]= 0.005000
 RESTRAINT| Active restraint on COLLECTIVE section Nr.    11. K [a.u.]= 0.005000
 RESTRAINT| Active restraint on COLLECTIVE section Nr.    12. K [a.u.]= 0.005000
 DECOMP =  T
 DECOMP =  T

 MD| Molecular Dynamics Protocol 
 MD| Ensemble Type                                                           NVE
 MD| Number of Time Steps                                                    200
 MD| Time Step [fs]                                                         0.10
 MD| Temperature [K]                                                      300.00
 MD| Temperature tolerance [K]                                              0.00
 MD| Constraints activated 
 MD| Tolerance for shake                                              0.1000E-05
 MD| Print MD information every                                        1 step(s)
 MD| File type     Print frequency[steps]                             File names
 MD| Coordinates          200                                      run-pos-1.xyz
 MD| Velocities             1                                      run-vel-1.xyz
 MD| Energies               1                                         run-1.ener
 MD| Dump                 200                                      run-1.restart

 ROT| Rotational Analysis Info 
 ROT| Principal axes and moments of inertia in atomic units:
 ROT|                                1                 2                 3
 ROT| EIGENVALUES            0.147348159E+13   0.181154206E+13   0.188503186E+13
 ROT|      X                     0.725533885      -0.686324004      -0.050595880
 ROT|      Y                     0.081160793       0.012326244       0.996624799
 ROT|      Z                     0.683383865       0.727191464      -0.064645708
 ROT| Numer of Rotovibrational vectors:     6

 Calculation of degrees of freedom
                                                      Number of atoms:       248
                                 Number of Intramolecular constraints:         0
                                 Number of Intermolecular constraints:         0
                                  Invariants(translation + rotations):         3
                                                   Degrees of freedom:       741


 Restraints Information
                                  Number of Intramolecular restraints:         0
                                  Number of Intermolecular restraints:        12

 *** WARNING in motion/thermostat/thermostat_methods.F:280 :: Thermostat ***
 *** for Particles has been defined but the ensemble provided does not   ***
 *** support thermostat for Particles! Ignoring thermostat input.        ***

 ************************** Velocities initialization **************************
 Initial Temperature                                                    333.01 K
 COM velocity:           -0.000023072435      0.000013407134     -0.000010397276
 *******************************************************************************

 FIRST CALL: force_env_calc_energy_force
 RESTART_KEY F
 FOBSH| ACTIVE STATE =            1

 ENERGY| Total FORCE_EVAL ( MIXED ) energy (a.u.):             0.335647638662622

 STEP NUMBER                  =            0
 CPU TIME [s]                 =    0.0000000000000000        0.0000000000000000     

 MD_ENERGIES| Initialization proceeding


 ******************************** GO CP2K GO! **********************************
 INITIAL POTENTIAL ENERGY[hartree]     =                      0.335647638663E+00
 INITIAL KINETIC ENERGY[hartree]       =                      0.393255336332E+00
 INITIAL TEMPERATURE[K]                =                                 335.169
 INITIAL VOLUME[bohr^3]                =                      0.145764026995E+07
 INITIAL CELL LNTHS[bohr]   =      0.1133836E+03   0.1133836E+03   0.1133836E+03
 INITIAL CELL ANGLS[deg]    =      0.9000000E+02   0.9000000E+02   0.9000000E+02
 ******************************** GO CP2K GO! **********************************
 FOBSH| Put former active state           1 in new active state           1
 RANDOM_NUMBER_HOPPING_PROBA  0.42506174147428072     
 FOBSH| ACTIVE STATE =            1

 ENERGY| Total FORCE_EVAL ( MIXED ) energy (a.u.):             0.335526253647547

 FOBSH| CASE1: no hop and no trivial crossing
 ENTER integrator.F
 STEP NUMBER                  =            1
 CPU TIME [s]                 =    4.9018283374607563E-002   4.9018283374607563E-002

 *******************************************************************************
 ENSEMBLE TYPE                =                                              NVE
 STEP NUMBER                  =                                                1
 TIME [fs]                    =                                         0.100000
 CONSERVED QUANTITY [hartree] =                               0.728902987563E+00

                                              INSTANTANEOUS             AVERAGES
 CPU TIME [s]                 =                        0.05                 0.05
 ENERGY DRIFT PER ATOM [K]    =          0.160026313563E-04   0.000000000000E+00
 POTENTIAL ENERGY[hartree]    =          0.335526253648E+00   0.335526253648E+00
 KINETIC ENERGY [hartree]     =          0.393376733915E+00   0.393376733915E+00
 TEMPERATURE [K]              =                     335.272              335.272
 *******************************************************************************

 FOBSH| Put former active state           1 in new active state           1
 RANDOM_NUMBER_HOPPING_PROBA  0.57253296000111287     
 FOBSH| ACTIVE STATE =            1

 ENERGY| Total FORCE_EVAL ( MIXED ) energy (a.u.):             0.335367682666499

 FOBSH| CASE1: no hop and no trivial crossing
 ENTER integrator.F
 STEP NUMBER                  =            2
 CPU TIME [s]                 =    2.1071437746286392E-002   3.5044860560446978E-002

 *******************************************************************************
 ENSEMBLE TYPE                =                                              NVE
 STEP NUMBER                  =                                                2
 TIME [fs]                    =                                         0.200000
 CONSERVED QUANTITY [hartree] =                               0.728902952027E+00

                                              INSTANTANEOUS             AVERAGES
 CPU TIME [s]                 =                        0.02                 0.04
 ENERGY DRIFT PER ATOM [K]    =         -0.292441086472E-04  -0.146220543236E-04
 POTENTIAL ENERGY[hartree]    =          0.335367682666E+00   0.335446968157E+00
 KINETIC ENERGY [hartree]     =          0.393535269361E+00   0.393456001638E+00
 TEMPERATURE [K]              =                     335.407              335.340
 *******************************************************************************

 FOBSH| Put former active state           1 in new active state           1
 RANDOM_NUMBER_HOPPING_PROBA  0.98601443508896114     
 FOBSH| ACTIVE STATE =            1

 ENERGY| Total FORCE_EVAL ( MIXED ) energy (a.u.):             0.335172469916122

 FOBSH| CASE1: no hop and no trivial crossing
 ENTER integrator.F
 STEP NUMBER                  =            3
 CPU TIME [s]                 =    2.3489168845117092E-002   3.1192963322003681E-002

 *******************************************************************************
 ENSEMBLE TYPE                =                                              NVE
 STEP NUMBER                  =                                                3
 TIME [fs]                    =                                         0.300000
 CONSERVED QUANTITY [hartree] =                               0.728902869496E+00

                                              INSTANTANEOUS             AVERAGES
 CPU TIME [s]                 =                        0.02                 0.03
 ENERGY DRIFT PER ATOM [K]    =         -0.134330159529E-03  -0.545247560588E-04
 POTENTIAL ENERGY[hartree]    =          0.335172469916E+00   0.335355468743E+00
 KINETIC ENERGY [hartree]     =          0.393730399579E+00   0.393547467618E+00
 TEMPERATURE [K]              =                     335.574              335.418
 *******************************************************************************

 FOBSH| Put former active state           1 in new active state           1
 RANDOM_NUMBER_HOPPING_PROBA  0.95254159069821498     
 FOBSH| ACTIVE STATE =            1

 ENERGY| Total FORCE_EVAL ( MIXED ) energy (a.u.):             0.334941916887167

 FOBSH| CASE1: no hop and no trivial crossing
 ENTER integrator.F
 STEP NUMBER                  =            4
 CPU TIME [s]                 =    9.6969986334443092E-003   2.5818972149863839E-002

 *******************************************************************************
 ENSEMBLE TYPE                =                                              NVE
 STEP NUMBER                  =                                                4
 TIME [fs]                    =                                         0.400000
 CONSERVED QUANTITY [hartree] =                               0.728902741670E+00

                                              INSTANTANEOUS             AVERAGES
 CPU TIME [s]                 =                        0.01                 0.03
 ENERGY DRIFT PER ATOM [K]    =         -0.297088374626E-03  -0.115165660701E-03
 POTENTIAL ENERGY[hartree]    =          0.334941916887E+00   0.335252080779E+00
 KINETIC ENERGY [hartree]     =          0.393960824783E+00   0.393650806909E+00
 TEMPERATURE [K]              =                     335.770              335.506
 *******************************************************************************

 FOBSH| Put former active state           1 in new active state           1
 RANDOM_NUMBER_HOPPING_PROBA  0.89801537869200088     
 FOBSH| ACTIVE STATE =            1

 ENERGY| Total FORCE_EVAL ( MIXED ) energy (a.u.):             0.334678058345622

 FOBSH| CASE1: no hop and no trivial crossing
 ENTER integrator.F
 STEP NUMBER                  =            5
 CPU TIME [s]                 =    2.2115775384008884E-002   2.5078332796692849E-002

 *******************************************************************************
 ENSEMBLE TYPE                =                                              NVE
 STEP NUMBER                  =                                                5
 TIME [fs]                    =                                         0.500000
 CONSERVED QUANTITY [hartree] =                               0.728902569736E+00

                                              INSTANTANEOUS             AVERAGES
 CPU TIME [s]                 =                        0.02                 0.03
 ENERGY DRIFT PER ATOM [K]    =         -0.516009896681E-03  -0.195334507897E-03
 POTENTIAL ENERGY[hartree]    =          0.334678058346E+00   0.335137276293E+00
 KINETIC ENERGY [hartree]     =          0.394224511390E+00   0.393765547806E+00
 TEMPERATURE [K]              =                     335.995              335.604
 *******************************************************************************

 FOBSH| Put former active state           1 in new active state           1
 RANDOM_NUMBER_HOPPING_PROBA  0.71660996951509126     
 FOBSH| ACTIVE STATE =            1

 ENERGY| Total FORCE_EVAL ( MIXED ) energy (a.u.):             0.334383630644299

 FOBSH| CASE1: no hop and no trivial crossing
 ENTER integrator.F
 STEP NUMBER                  =            6
 CPU TIME [s]                 =    2.2515630349516869E-002   2.4651215722163517E-002

 *******************************************************************************
 ENSEMBLE TYPE                =                                              NVE
 STEP NUMBER                  =                                                6
 TIME [fs]                    =                                         0.600000
 CONSERVED QUANTITY [hartree] =                               0.728902356971E+00

                                              INSTANTANEOUS             AVERAGES
 CPU TIME [s]                 =                        0.02                 0.02
 ENERGY DRIFT PER ATOM [K]    =         -0.786920206504E-03  -0.293932124331E-03
 POTENTIAL ENERGY[hartree]    =          0.334383630644E+00   0.335011668685E+00
 KINETIC ENERGY [hartree]     =          0.394518726327E+00   0.393891077559E+00
 TEMPERATURE [K]              =                     336.246              335.711
 *******************************************************************************

 FOBSH| Put former active state           1 in new active state           1
 RANDOM_NUMBER_HOPPING_PROBA  0.87535406930224191     
 FOBSH| ACTIVE STATE =            1

 ENERGY| Total FORCE_EVAL ( MIXED ) energy (a.u.):             0.334062024113460

 FOBSH| CASE1: no hop and no trivial crossing
 ENTER integrator.F
 STEP NUMBER                  =            7
 CPU TIME [s]                 =    2.4220815859735012E-002   2.4589730027530874E-002

 *******************************************************************************
 ENSEMBLE TYPE                =                                              NVE
 STEP NUMBER                  =                                                7
 TIME [fs]                    =                                         0.700000
 CONSERVED QUANTITY [hartree] =                               0.728902106510E+00

                                              INSTANTANEOUS             AVERAGES
 CPU TIME [s]                 =                        0.02                 0.02
 ENERGY DRIFT PER ATOM [K]    =         -0.110582824753E-02  -0.409917284788E-03
 POTENTIAL ENERGY[hartree]    =          0.334062024113E+00   0.334876005174E+00
 KINETIC ENERGY [hartree]     =          0.394840082396E+00   0.394026649679E+00
 TEMPERATURE [K]              =                     336.520              335.826
 *******************************************************************************

 FOBSH| Put former active state           1 in new active state           1
 RANDOM_NUMBER_HOPPING_PROBA  0.91330135729319484     
 FOBSH| ACTIVE STATE =            1

 ENERGY| Total FORCE_EVAL ( MIXED ) energy (a.u.):             0.333717233740780

 FOBSH| CASE1: no hop and no trivial crossing
 ENTER integrator.F
 STEP NUMBER                  =            8
 CPU TIME [s]                 =    8.5624353960156441E-003   2.2586318198591471E-002

 *******************************************************************************
 ENSEMBLE TYPE                =                                              NVE
 STEP NUMBER                  =                                                8
 TIME [fs]                    =                                         0.800000
 CONSERVED QUANTITY [hartree] =                               0.728901822575E+00

                                              INSTANTANEOUS             AVERAGES
 CPU TIME [s]                 =                        0.01                 0.02
 ENERGY DRIFT PER ATOM [K]    =         -0.146735793908E-02  -0.542097366574E-03
 POTENTIAL ENERGY[hartree]    =          0.333717233741E+00   0.334731158745E+00
 KINETIC ENERGY [hartree]     =          0.395184588835E+00   0.394171392073E+00
 TEMPERATURE [K]              =                     336.813              335.950
 *******************************************************************************

 FOBSH| Put former active state           1 in new active state           1
 RANDOM_NUMBER_HOPPING_PROBA  0.62352110461620380     
 FOBSH| ACTIVE STATE =            1

 ENERGY| Total FORCE_EVAL ( MIXED ) energy (a.u.):             0.333353796793407

 FOBSH| CASE1: no hop and no trivial crossing
 ENTER integrator.F
 STEP NUMBER                  =            9
 CPU TIME [s]                 =    2.2985532879829407E-002   2.2630675385395684E-002

 *******************************************************************************
 ENSEMBLE TYPE                =                                              NVE
 STEP NUMBER                  =                                                9
 TIME [fs]                    =                                         0.900000
 CONSERVED QUANTITY [hartree] =                               0.728901509228E+00

                                              INSTANTANEOUS             AVERAGES
 CPU TIME [s]                 =                        0.02                 0.02
 ENERGY DRIFT PER ATOM [K]    =         -0.186633856236E-02  -0.689235277216E-03
 POTENTIAL ENERGY[hartree]    =          0.333353796793E+00   0.334578118528E+00
 KINETIC ENERGY [hartree]     =          0.395547712434E+00   0.394324316558E+00
 TEMPERATURE [K]              =                     337.123              336.080
 *******************************************************************************

 FOBSH| Put former active state           1 in new active state           1
 RANDOM_NUMBER_HOPPING_PROBA  0.52456615215860303     
 FOBSH| ACTIVE STATE =            1

 ENERGY| Total FORCE_EVAL ( MIXED ) energy (a.u.):             0.332976723909224

 FOBSH| CASE1: no hop and no trivial crossing
 ENTER integrator.F
 STEP NUMBER                  =           10
 CPU TIME [s]                 =    2.3191345855593681E-002   2.2686742432415485E-002

 *******************************************************************************
 ENSEMBLE TYPE                =                                              NVE
 STEP NUMBER                  =                                               10
 TIME [fs]                    =                                         1.000000
 CONSERVED QUANTITY [hartree] =                               0.728901171121E+00

                                              INSTANTANEOUS             AVERAGES
 CPU TIME [s]                 =                        0.02                 0.02
 ENERGY DRIFT PER ATOM [K]    =         -0.229684457095E-02  -0.849996206590E-03
 POTENTIAL ENERGY[hartree]    =          0.332976723909E+00   0.334417979066E+00
 KINETIC ENERGY [hartree]     =          0.395924447212E+00   0.394484329623E+00
 TEMPERATURE [K]              =                     337.444              336.216
 *******************************************************************************

 FOBSH| Put former active state           1 in new active state           1
 RANDOM_NUMBER_HOPPING_PROBA  0.82463783945997038     
 FOBSH| ACTIVE STATE =            1

 ENERGY| Total FORCE_EVAL ( MIXED ) energy (a.u.):             0.332591425211521

 FOBSH| CASE1: no hop and no trivial crossing
 ENTER integrator.F
 STEP NUMBER                  =           11
 CPU TIME [s]                 =    2.3615351878106594E-002   2.2771161472932861E-002

 *******************************************************************************
 ENSEMBLE TYPE                =                                              NVE
 STEP NUMBER                  =                                               11
 TIME [fs]                    =                                         1.100000
 CONSERVED QUANTITY [hartree] =                               0.728900813191E+00

                                              INSTANTANEOUS             AVERAGES
 CPU TIME [s]                 =                        0.02                 0.02
 ENERGY DRIFT PER ATOM [K]    =         -0.275259180420E-02  -0.102295944274E-02
 POTENTIAL ENERGY[hartree]    =          0.332591425212E+00   0.334251928716E+00
 KINETIC ENERGY [hartree]     =          0.396309387979E+00   0.394650244019E+00
 TEMPERATURE [K]              =                     337.772              336.358
 *******************************************************************************

 FOBSH| Put former active state           1 in new active state           1
 RANDOM_NUMBER_HOPPING_PROBA  0.10919677156790358     
 FOBSH| ACTIVE STATE =            1

 ENERGY| Total FORCE_EVAL ( MIXED ) energy (a.u.):             0.332203631456042

 FOBSH| CASE1: no hop and no trivial crossing
 ENTER integrator.F
 STEP NUMBER                  =           12
 CPU TIME [s]                 =    8.0782733857631683E-003   2.1546754132335384E-002

 *******************************************************************************
 ENSEMBLE TYPE                =                                              NVE
 STEP NUMBER                  =                                               12
 TIME [fs]                    =                                         1.200000
 CONSERVED QUANTITY [hartree] =                               0.728900440574E+00

                                              INSTANTANEOUS             AVERAGES
 CPU TIME [s]                 =                        0.01                 0.02
 ENERGY DRIFT PER ATOM [K]    =         -0.322703966937E-02  -0.120663279496E-02
 POTENTIAL ENERGY[hartree]    =          0.332203631456E+00   0.334081237278E+00
 KINETIC ENERGY [hartree]     =          0.396696809118E+00   0.394820791111E+00
 TEMPERATURE [K]              =                     338.102              336.503
 *******************************************************************************

 FOBSH| Put former active state           1 in new active state           1
 RANDOM_NUMBER_HOPPING_PROBA  0.45507176864308491     
 FOBSH| ACTIVE STATE =            1

 ENERGY| Total FORCE_EVAL ( MIXED ) energy (a.u.):             0.331819310488046

 FOBSH| CASE1: no hop and no trivial crossing
 ENTER integrator.F
 STEP NUMBER                  =           13
 CPU TIME [s]                 =    2.4830800481140614E-002   2.1799373082243480E-002

 *******************************************************************************
 ENSEMBLE TYPE                =                                              NVE
 STEP NUMBER                  =                                               13
 TIME [fs]                    =                                         1.300000
 CONSERVED QUANTITY [hartree] =                               0.728900058925E+00

                                              INSTANTANEOUS             AVERAGES
 CPU TIME [s]                 =                        0.02                 0.02
 ENERGY DRIFT PER ATOM [K]    =         -0.371298761891E-02  -0.139942931987E-02
 POTENTIAL ENERGY[hartree]    =          0.331819310488E+00   0.333907242909E+00
 KINETIC ENERGY [hartree]     =          0.397080748437E+00   0.394994633982E+00
 TEMPERATURE [K]              =                     338.429              336.651
 *******************************************************************************

 FOBSH| Put former active state           1 in new active state           1
 RANDOM_NUMBER_HOPPING_PROBA  0.69851938874740926     
 FOBSH| ACTIVE STATE =            1

 ENERGY| Total FORCE_EVAL ( MIXED ) energy (a.u.):             0.331444578201012

 FOBSH| CASE1: no hop and no trivial crossing
 ENTER integrator.F
 STEP NUMBER                  =           14
 CPU TIME [s]                 =    2.0483393222093582E-002   2.1705374520804201E-002

 *******************************************************************************
 ENSEMBLE TYPE                =                                              NVE
 STEP NUMBER                  =                                               14
 TIME [fs]                    =                                         1.400000
 CONSERVED QUANTITY [hartree] =                               0.728899673775E+00

                                              INSTANTANEOUS             AVERAGES
 CPU TIME [s]                 =                        0.02                 0.02
 ENERGY DRIFT PER ATOM [K]    =         -0.420339233063E-02  -0.159971239207E-02
 POTENTIAL ENERGY[hartree]    =          0.331444578201E+00   0.333731338287E+00
 KINETIC ENERGY [hartree]     =          0.397455095574E+00   0.395170381239E+00
 TEMPERATURE [K]              =                     338.748              336.801
 *******************************************************************************

 FOBSH| Put former active state           1 in new active state           1
 RANDOM_NUMBER_HOPPING_PROBA  0.22173039222134316     
 FOBSH| ACTIVE STATE =            1

 ENERGY| Total FORCE_EVAL ( MIXED ) energy (a.u.):             0.331085609250466

 FOBSH| CASE1: no hop and no trivial crossing
 ENTER integrator.F
 STEP NUMBER                  =           15
 CPU TIME [s]                 =    1.7750090919435024E-002   2.1441688947379588E-002

 *******************************************************************************
 ENSEMBLE TYPE                =                                              NVE
 STEP NUMBER                  =                                               15
 TIME [fs]                    =                                         1.500000
 CONSERVED QUANTITY [hartree] =                               0.728899290820E+00

                                              INSTANTANEOUS             AVERAGES
 CPU TIME [s]                 =                        0.02                 0.02
 ENERGY DRIFT PER ATOM [K]    =         -0.469100419231E-02  -0.180579851209E-02
 POTENTIAL ENERGY[hartree]    =          0.331085609250E+00   0.333554956351E+00
 KINETIC ENERGY [hartree]     =          0.397813681569E+00   0.395346601261E+00
 TEMPERATURE [K]              =                     339.054              336.951
 *******************************************************************************

 FOBSH| Put former active state           1 in new active state           1
 RANDOM_NUMBER_HOPPING_PROBA  0.84849448094304003     
 FOBSH| ACTIVE STATE =            1

 ENERGY| Total FORCE_EVAL ( MIXED ) energy (a.u.):             0.330748546318119

 FOBSH| CASE1: no hop and no trivial crossing
 ENTER integrator.F
 STEP NUMBER                  =           16
 CPU TIME [s]                 =    2.2880330681800842E-002   2.1531604055780917E-002

 *******************************************************************************
 ENSEMBLE TYPE                =                                              NVE
 STEP NUMBER                  =                                               16
 TIME [fs]                    =                                         1.600000
 CONSERVED QUANTITY [hartree] =                               0.728898915704E+00

                                              INSTANTANEOUS             AVERAGES
 CPU TIME [s]                 =                        0.02                 0.02
 ENERGY DRIFT PER ATOM [K]    =         -0.516863354090E-02  -0.201597570139E-02
 POTENTIAL ENERGY[hartree]    =          0.330748546318E+00   0.333379555724E+00
 KINETIC ENERGY [hartree]     =          0.398150369386E+00   0.395521836768E+00
 TEMPERATURE [K]              =                     339.341              337.101
 *******************************************************************************

 FOBSH| Put former active state           1 in new active state           1
 RANDOM_NUMBER_HOPPING_PROBA  0.83049142284836064     
 FOBSH| ACTIVE STATE =            1

 ENERGY| Total FORCE_EVAL ( MIXED ) energy (a.u.):             0.330439409568754

 FOBSH| CASE1: no hop and no trivial crossing
 ENTER integrator.F
 STEP NUMBER                  =           17
 CPU TIME [s]                 =    9.2208180576562881E-003   2.0807440173538291E-002

 *******************************************************************************
 ENSEMBLE TYPE                =                                              NVE
 STEP NUMBER                  =                                               17
 TIME [fs]                    =                                         1.700000
 CONSERVED QUANTITY [hartree] =                               0.728898553968E+00

                                              INSTANTANEOUS             AVERAGES
 CPU TIME [s]                 =                        0.01                 0.02
 ENERGY DRIFT PER ATOM [K]    =         -0.562922585772E-02  -0.222851982823E-02
 POTENTIAL ENERGY[hartree]    =          0.330439409569E+00   0.333206605950E+00
 KINETIC ENERGY [hartree]     =          0.398459144399E+00   0.395694619570E+00
 TEMPERATURE [K]              =                     339.604              337.248
 *******************************************************************************

 FOBSH| Put former active state           1 in new active state           1
 RANDOM_NUMBER_HOPPING_PROBA   3.5835056671335318E-002
 FOBSH| ACTIVE STATE =            1

 ENERGY| Total FORCE_EVAL ( MIXED ) energy (a.u.):             0.330164007890496

 FOBSH| CASE1: no hop and no trivial crossing
 ENTER integrator.F
 STEP NUMBER                  =           18
 CPU TIME [s]                 =    2.2139440290629864E-002   2.0881440180043377E-002

 *******************************************************************************
 ENSEMBLE TYPE                =                                              NVE
 STEP NUMBER                  =                                               18
 TIME [fs]                    =                                         1.800000
 CONSERVED QUANTITY [hartree] =                               0.728898210949E+00

                                              INSTANTANEOUS             AVERAGES
 CPU TIME [s]                 =                        0.02                 0.02
 ENERGY DRIFT PER ATOM [K]    =         -0.606598716997E-02  -0.244171245833E-02
 POTENTIAL ENERGY[hartree]    =          0.330164007890E+00   0.333037572725E+00
 KINETIC ENERGY [hartree]     =          0.398734203058E+00   0.395863485320E+00
 TEMPERATURE [K]              =                     339.838              337.392
 *******************************************************************************

 FOBSH| Put former active state           1 in new active state           1
 RANDOM_NUMBER_HOPPING_PROBA  0.12588627338044925     
 FOBSH| ACTIVE STATE =            1

 ENERGY| Total FORCE_EVAL ( MIXED ) energy (a.u.):             0.329927852943724

 FOBSH| CASE1: no hop and no trivial crossing
 ENTER integrator.F
 STEP NUMBER                  =           19
 CPU TIME [s]                 =    2.0848215557634830E-002   2.0879691515706084E-002

 *******************************************************************************
 ENSEMBLE TYPE                =                                              NVE
 STEP NUMBER                  =                                               19
 TIME [fs]                    =                                         1.900000
 CONSERVED QUANTITY [hartree] =                               0.728897892572E+00

                                              INSTANTANEOUS             AVERAGES
 CPU TIME [s]                 =                        0.02                 0.02
 ENERGY DRIFT PER ATOM [K]    =         -0.647137112702E-02  -0.265379975668E-02
 POTENTIAL ENERGY[hartree]    =          0.329927852944E+00   0.332873903263E+00
 KINETIC ENERGY [hartree]     =          0.398970039629E+00   0.396026988178E+00
 TEMPERATURE [K]              =                     340.039              337.531
 *******************************************************************************

 FOBSH| Put former active state           1 in new active state           1
 RANDOM_NUMBER_HOPPING_PROBA  0.62234509350913103     
 FOBSH| ACTIVE STATE =            1

 ENERGY| Total FORCE_EVAL ( MIXED ) energy (a.u.):             0.329736075649649

 FOBSH| CASE1: no hop and no trivial crossing
 ENTER integrator.F
 STEP NUMBER                  =           20
 CPU TIME [s]                 =    9.6643455326557159E-003   2.0318924216553569E-002

 *******************************************************************************
 ENSEMBLE TYPE                =                                              NVE
 STEP NUMBER                  =                                               20
 TIME [fs]                    =                                         2.000000
 CONSERVED QUANTITY [hartree] =                               0.728897601994E+00

                                              INSTANTANEOUS             AVERAGES
 CPU TIME [s]                 =                        0.01                 0.02
 ENERGY DRIFT PER ATOM [K]    =         -0.684135996107E-02  -0.286317776690E-02
 POTENTIAL ENERGY[hartree]    =          0.329736075650E+00   0.332717011882E+00
 KINETIC ENERGY [hartree]     =          0.399161526345E+00   0.396183715086E+00
 TEMPERATURE [K]              =                     340.203              337.665
 *******************************************************************************

 FOBSH| Put former active state           1 in new active state           1
 RANDOM_NUMBER_HOPPING_PROBA  0.38080180208356468     
 FOBSH| ACTIVE STATE =            1

 ENERGY| Total FORCE_EVAL ( MIXED ) energy (a.u.):             0.329593354336203

 FOBSH| CASE1: no hop and no trivial crossing
 ENTER integrator.F
 STEP NUMBER                  =           21
 CPU TIME [s]                 =    2.3410486057400703E-002   2.0466141447070096E-002

 *******************************************************************************
 ENSEMBLE TYPE                =                                              NVE
 STEP NUMBER                  =                                               21
 TIME [fs]                    =                                         2.100000
 CONSERVED QUANTITY [hartree] =                               0.728897344488E+00

                                              INSTANTANEOUS             AVERAGES
 CPU TIME [s]                 =                        0.02                 0.02
 ENERGY DRIFT PER ATOM [K]    =         -0.716923886289E-02  -0.306822829528E-02
 POTENTIAL ENERGY[hartree]    =          0.329593354336E+00   0.332568266285E+00
 KINETIC ENERGY [hartree]     =          0.399303990152E+00   0.396332299613E+00
 TEMPERATURE [K]              =                     340.324              337.791
 *******************************************************************************

 FOBSH| Put former active state           1 in new active state           1
 RANDOM_NUMBER_HOPPING_PROBA  0.71971403474465934     
 FOBSH| ACTIVE STATE =            1

 ENERGY| Total FORCE_EVAL ( MIXED ) energy (a.u.):             0.329503838066142

 FOBSH| CASE1: no hop and no trivial crossing
 ENTER integrator.F
 STEP NUMBER                  =           22
 CPU TIME [s]                 =    2.1481478586792946E-002   2.0512293135239317E-002

 *******************************************************************************
 ENSEMBLE TYPE                =                                              NVE
 STEP NUMBER                  =                                               22
 TIME [fs]                    =                                         2.200000
 CONSERVED QUANTITY [hartree] =                               0.728897124096E+00

                                              INSTANTANEOUS             AVERAGES
 CPU TIME [s]                 =                        0.02                 0.02
 ENERGY DRIFT PER ATOM [K]    =         -0.744986013690E-02  -0.326739337899E-02
 POTENTIAL ENERGY[hartree]    =          0.329503838066E+00   0.332428974093E+00
 KINETIC ENERGY [hartree]     =          0.399393286030E+00   0.396471435359E+00
 TEMPERATURE [K]              =                     340.400              337.910
 *******************************************************************************

 FOBSH| Put former active state           1 in new active state           1
 RANDOM_NUMBER_HOPPING_PROBA  0.32085847941659479     
 FOBSH| ACTIVE STATE =            1

 ENERGY| Total FORCE_EVAL ( MIXED ) energy (a.u.):             0.329471082302730

 FOBSH| CASE1: no hop and no trivial crossing
 ENTER integrator.F
 STEP NUMBER                  =           23
 CPU TIME [s]                 =    7.7180163934826851E-003   1.9956020233423809E-002

 *******************************************************************************
 ENSEMBLE TYPE                =                                              NVE
 STEP NUMBER                  =                                               23
 TIME [fs]                    =                                         2.300000
 CONSERVED QUANTITY [hartree] =                               0.728896943794E+00

                                              INSTANTANEOUS             AVERAGES
 CPU TIME [s]                 =                        0.01                 0.02
 ENERGY DRIFT PER ATOM [K]    =         -0.767943591269E-02  -0.345922131524E-02
 POTENTIAL ENERGY[hartree]    =          0.329471082303E+00   0.332300370102E+00
 KINETIC ENERGY [hartree]     =          0.399425861492E+00   0.396599888670E+00
 TEMPERATURE [K]              =                     340.428              338.019
 *******************************************************************************

 FOBSH| Put former active state           1 in new active state           1
 RANDOM_NUMBER_HOPPING_PROBA  0.79374972942749600     
 FOBSH| ACTIVE STATE =            1

 ENERGY| Total FORCE_EVAL ( MIXED ) energy (a.u.):             0.329497994682697

 FOBSH| CASE1: no hop and no trivial crossing
 ENTER integrator.F
 STEP NUMBER                  =           24
 CPU TIME [s]                 =    2.3165524937212467E-002   2.0089749596081667E-002

 *******************************************************************************
 ENSEMBLE TYPE                =                                              NVE
 STEP NUMBER                  =                                               24
 TIME [fs]                    =                                         2.400000
 CONSERVED QUANTITY [hartree] =                               0.728896807783E+00

                                              INSTANTANEOUS             AVERAGES
 CPU TIME [s]                 =                        0.02                 0.02
 ENERGY DRIFT PER ATOM [K]    =         -0.785261736114E-02  -0.364227948382E-02
 POTENTIAL ENERGY[hartree]    =          0.329497994683E+00   0.332183604460E+00
 KINETIC ENERGY [hartree]     =          0.399398813100E+00   0.396716510521E+00
 TEMPERATURE [K]              =                     340.405              338.119
 *******************************************************************************

 FOBSH| Put former active state           1 in new active state           1
 RANDOM_NUMBER_HOPPING_PROBA  0.93432885556025480     
 FOBSH| ACTIVE STATE =            1

 ENERGY| Total FORCE_EVAL ( MIXED ) energy (a.u.):             0.329586784465512

 FOBSH| CASE1: no hop and no trivial crossing
 ENTER integrator.F
 STEP NUMBER                  =           25
 CPU TIME [s]                 =    2.2277286276221275E-002   2.0177251063287251E-002

 *******************************************************************************
 ENSEMBLE TYPE                =                                              NVE
 STEP NUMBER                  =                                               25
 TIME [fs]                    =                                         2.500000
 CONSERVED QUANTITY [hartree] =                               0.728896717684E+00

                                              INSTANTANEOUS             AVERAGES
 CPU TIME [s]                 =                        0.02                 0.02
 ENERGY DRIFT PER ATOM [K]    =         -0.796733872042E-02  -0.381528185328E-02
 POTENTIAL ENERGY[hartree]    =          0.329586784466E+00   0.332079731660E+00
 KINETIC ENERGY [hartree]     =          0.399309933219E+00   0.396820247429E+00
 TEMPERATURE [K]              =                     340.329              338.207
 *******************************************************************************

 FOBSH| Put former active state           1 in new active state           1
 RANDOM_NUMBER_HOPPING_PROBA  0.73068427736459529     
 FOBSH| ACTIVE STATE =            1

 ENERGY| Total FORCE_EVAL ( MIXED ) energy (a.u.):             0.329738927313627

 FOBSH| CASE1: no hop and no trivial crossing
 ENTER integrator.F
 STEP NUMBER                  =           26
 CPU TIME [s]                 =    2.2467928938567638E-002   2.0265354058490344E-002

 *******************************************************************************
 ENSEMBLE TYPE                =                                              NVE
 STEP NUMBER                  =                                               26
 TIME [fs]                    =                                         2.600000
 CONSERVED QUANTITY [hartree] =                               0.728896674921E+00

                                              INSTANTANEOUS             AVERAGES
 CPU TIME [s]                 =                        0.02                 0.02
 ENERGY DRIFT PER ATOM [K]    =         -0.802178872286E-02  -0.397707057903E-02
 POTENTIAL ENERGY[hartree]    =          0.329738927314E+00   0.331989700723E+00
 KINETIC ENERGY [hartree]     =          0.399157747607E+00   0.396910151282E+00
 TEMPERATURE [K]              =                     340.199              338.284
 *******************************************************************************

 FOBSH| Put former active state           1 in new active state           1
 RANDOM_NUMBER_HOPPING_PROBA   5.2447597475047292E-002
 FOBSH| ACTIVE STATE =            1

 ENERGY| Total FORCE_EVAL ( MIXED ) energy (a.u.):             0.329955136387495

 FOBSH| CASE1: no hop and no trivial crossing
 ENTER integrator.F
 STEP NUMBER                  =           27
 CPU TIME [s]                 =    6.6013373434543610E-003   1.9759279365340863E-002

 *******************************************************************************
 ENSEMBLE TYPE                =                                              NVE
 STEP NUMBER                  =                                               27
 TIME [fs]                    =                                         2.700000
 CONSERVED QUANTITY [hartree] =                               0.728896681189E+00

                                              INSTANTANEOUS             AVERAGES
 CPU TIME [s]                 =                        0.01                 0.02
 ENERGY DRIFT PER ATOM [K]    =         -0.801380757976E-02  -0.412657935684E-02
 POTENTIAL ENERGY[hartree]    =          0.329955136387E+00   0.331914346489E+00
 KINETIC ENERGY [hartree]     =          0.398941544801E+00   0.396985388079E+00
 TEMPERATURE [K]              =                     340.015              338.348
 *******************************************************************************

 FOBSH| Put former active state           1 in new active state           1
 RANDOM_NUMBER_HOPPING_PROBA  0.22220662730256527     
 FOBSH| ACTIVE STATE =            1

 ENERGY| Total FORCE_EVAL ( MIXED ) energy (a.u.):             0.330235338989725

 FOBSH| CASE1: no hop and no trivial crossing
 ENTER integrator.F
 STEP NUMBER                  =           28
 CPU TIME [s]                 =    2.3743530735373497E-002   1.9901574057127742E-002

 *******************************************************************************
 ENSEMBLE TYPE                =                                              NVE
 STEP NUMBER                  =                                               28
 TIME [fs]                    =                                         2.800000
 CONSERVED QUANTITY [hartree] =                               0.728896738123E+00

                                              INSTANTANEOUS             AVERAGES
 CPU TIME [s]                 =                        0.02                 0.02
 ENERGY DRIFT PER ATOM [K]    =         -0.794131401526E-02  -0.426281988035E-02
 POTENTIAL ENERGY[hartree]    =          0.330235338990E+00   0.331854381935E+00
 KINETIC ENERGY [hartree]     =          0.398661399133E+00   0.397045245616E+00
 TEMPERATURE [K]              =                     339.776              338.399
 *******************************************************************************

 FOBSH| Put former active state           1 in new active state           1
 RANDOM_NUMBER_HOPPING_PROBA  0.82568653783360502     
 FOBSH| ACTIVE STATE =            1

 ENERGY| Total FORCE_EVAL ( MIXED ) energy (a.u.):             0.330578666268771

 FOBSH| CASE1: no hop and no trivial crossing
 ENTER integrator.F
 STEP NUMBER                  =           29
 CPU TIME [s]                 =    2.1355470642447472E-002   1.9951708422138767E-002

 *******************************************************************************
 ENSEMBLE TYPE                =                                              NVE
 STEP NUMBER                  =                                               29
 TIME [fs]                    =                                         2.900000
 CONSERVED QUANTITY [hartree] =                               0.728896843478E+00

                                              INSTANTANEOUS             AVERAGES
 CPU TIME [s]                 =                        0.02                 0.02
 ENERGY DRIFT PER ATOM [K]    =         -0.780716705697E-02  -0.438503874851E-02
 POTENTIAL ENERGY[hartree]    =          0.330578666269E+00   0.331810391740E+00
 KINETIC ENERGY [hartree]     =          0.398318177209E+00   0.397089139809E+00
 TEMPERATURE [K]              =                     339.484              338.436
 *******************************************************************************

 FOBSH| Put former active state           1 in new active state           1
 RANDOM_NUMBER_HOPPING_PROBA  0.38444406491805933     
 FOBSH| ACTIVE STATE =            1

 ENERGY| Total FORCE_EVAL ( MIXED ) energy (a.u.):             0.330983461054475

 FOBSH| CASE1: no hop and no trivial crossing
 ENTER integrator.F
 STEP NUMBER                  =           30
 CPU TIME [s]                 =    1.0683028027415276E-002   1.9642752408981317E-002

 *******************************************************************************
 ENSEMBLE TYPE                =                                              NVE
 STEP NUMBER                  =                                               30
 TIME [fs]                    =                                         3.000000
 CONSERVED QUANTITY [hartree] =                               0.728896997791E+00

                                              INSTANTANEOUS             AVERAGES
 CPU TIME [s]                 =                        0.01                 0.02
 ENERGY DRIFT PER ATOM [K]    =         -0.761068287119E-02  -0.449256021927E-02
 POTENTIAL ENERGY[hartree]    =          0.330983461054E+00   0.331782827384E+00
 KINETIC ENERGY [hartree]     =          0.397913536736E+00   0.397116619707E+00
 TEMPERATURE [K]              =                     339.139              338.460
 *******************************************************************************

 FOBSH| Put former active state           1 in new active state           1
 RANDOM_NUMBER_HOPPING_PROBA  0.19950001465529277     
 FOBSH| ACTIVE STATE =            1

 ENERGY| Total FORCE_EVAL ( MIXED ) energy (a.u.):             0.331447280666582

 FOBSH| CASE1: no hop and no trivial crossing
 ENTER integrator.F
 STEP NUMBER                  =           31
 CPU TIME [s]                 =    2.1427257917821407E-002   1.9700317102814866E-002

 *******************************************************************************
 ENSEMBLE TYPE                =                                              NVE
 STEP NUMBER                  =                                               31
 TIME [fs]                    =                                         3.100000
 CONSERVED QUANTITY [hartree] =                               0.728897199287E+00

                                              INSTANTANEOUS             AVERAGES
 CPU TIME [s]                 =                        0.02                 0.02
 ENERGY DRIFT PER ATOM [K]    =         -0.735412126167E-02  -0.458486863999E-02
 POTENTIAL ENERGY[hartree]    =          0.331447280667E+00   0.331772003296E+00
 KINETIC ENERGY [hartree]     =          0.397449918620E+00   0.397127371285E+00
 TEMPERATURE [K]              =                     338.744              338.469
 *******************************************************************************

 FOBSH| Put former active state           1 in new active state           1
 RANDOM_NUMBER_HOPPING_PROBA  0.18323923021409660     
 FOBSH| ACTIVE STATE =            1

 ENERGY| Total FORCE_EVAL ( MIXED ) energy (a.u.):             0.331966921544757

 FOBSH| CASE1: no hop and no trivial crossing
 ENTER integrator.F
 STEP NUMBER                  =           32
 CPU TIME [s]                 =    2.1802544593811035E-002   1.9766011711908497E-002

 *******************************************************************************
 ENSEMBLE TYPE                =                                              NVE
 STEP NUMBER                  =                                               32
 TIME [fs]                    =                                         3.200000
 CONSERVED QUANTITY [hartree] =                               0.728897446250E+00

                                              INSTANTANEOUS             AVERAGES
 CPU TIME [s]                 =                        0.02                 0.02
 ENERGY DRIFT PER ATOM [K]    =         -0.703966636592E-02  -0.466158106893E-02
 POTENTIAL ENERGY[hartree]    =          0.331966921545E+00   0.331778094491E+00
 KINETIC ENERGY [hartree]     =          0.396930524706E+00   0.397121219829E+00
 TEMPERATURE [K]              =                     338.301              338.464
 *******************************************************************************

 FOBSH| Put former active state           1 in new active state           1
 RANDOM_NUMBER_HOPPING_PROBA  0.19344440224497481     
 FOBSH| ACTIVE STATE =            1

 ENERGY| Total FORCE_EVAL ( MIXED ) energy (a.u.):             0.332538451527820

 FOBSH| CASE1: no hop and no trivial crossing
 ENTER integrator.F
 STEP NUMBER                  =           33
 CPU TIME [s]                 =    8.5992254316806793E-003   1.9427624248871293E-002

 *******************************************************************************
 ENSEMBLE TYPE                =                                              NVE
 STEP NUMBER                  =                                               33
 TIME [fs]                    =                                         3.300000
 CONSERVED QUANTITY [hartree] =                               0.728897735909E+00

                                              INSTANTANEOUS             AVERAGES
 CPU TIME [s]                 =                        0.01                 0.02
 ENERGY DRIFT PER ATOM [K]    =         -0.667084792719E-02  -0.472246794342E-02
 POTENTIAL ENERGY[hartree]    =          0.332538451528E+00   0.331801135614E+00
 KINETIC ENERGY [hartree]     =          0.396359284381E+00   0.397098130876E+00
 TEMPERATURE [K]              =                     337.814              338.444
 *******************************************************************************

 FOBSH| Put former active state           1 in new active state           1
 RANDOM_NUMBER_HOPPING_PROBA   9.8347387615651052E-002
 FOBSH| ACTIVE STATE =            1

 ENERGY| Total FORCE_EVAL ( MIXED ) energy (a.u.):             0.333157250050669

 FOBSH| CASE1: no hop and no trivial crossing
 ENTER integrator.F
 STEP NUMBER                  =           34
 CPU TIME [s]                 =    2.1762327291071415E-002   1.9496291985406592E-002

 *******************************************************************************
 ENSEMBLE TYPE                =                                              NVE
 STEP NUMBER                  =                                               34
 TIME [fs]                    =                                         3.400000
 CONSERVED QUANTITY [hartree] =                               0.728898065191E+00

                                              INSTANTANEOUS             AVERAGES
 CPU TIME [s]                 =                        0.02                 0.02
 ENERGY DRIFT PER ATOM [K]    =         -0.625157842667E-02  -0.476744178116E-02
 POTENTIAL ENERGY[hartree]    =          0.333157250051E+00   0.331841021332E+00
 KINETIC ENERGY [hartree]     =          0.395740815140E+00   0.397058209825E+00
 TEMPERATURE [K]              =                     337.287              338.410
 *******************************************************************************

 FOBSH| Put former active state           1 in new active state           1
 RANDOM_NUMBER_HOPPING_PROBA  0.84195369182302804     
 FOBSH| ACTIVE STATE =            1

 ENERGY| Total FORCE_EVAL ( MIXED ) energy (a.u.):             0.333818060390004

 FOBSH| CASE1: no hop and no trivial crossing
 ENTER integrator.F
 STEP NUMBER                  =           35
 CPU TIME [s]                 =    2.2869597189128399E-002   1.9592672134084357E-002

 *******************************************************************************
 ENSEMBLE TYPE                =                                              NVE
 STEP NUMBER                  =                                               35
 TIME [fs]                    =                                         3.500000
 CONSERVED QUANTITY [hartree] =                               0.728898430349E+00

                                              INSTANTANEOUS             AVERAGES
 CPU TIME [s]                 =                        0.02                 0.02
 ENERGY DRIFT PER ATOM [K]    =         -0.578662798781E-02  -0.479656138707E-02
 POTENTIAL ENERGY[hartree]    =          0.333818060390E+00   0.331897508163E+00
 KINETIC ENERGY [hartree]     =          0.395080369959E+00   0.397001700115E+00
 TEMPERATURE [K]              =                     336.724              338.362
 *******************************************************************************

 FOBSH| Put former active state           1 in new active state           1
 RANDOM_NUMBER_HOPPING_PROBA  0.83000150617219359     
 FOBSH| ACTIVE STATE =            1

 ENERGY| Total FORCE_EVAL ( MIXED ) energy (a.u.):             0.334515049936411

 FOBSH| CASE1: no hop and no trivial crossing
 ENTER integrator.F
 STEP NUMBER                  =           36
 CPU TIME [s]                 =    6.9450549781322479E-003   1.9241349435307909E-002

 *******************************************************************************
 ENSEMBLE TYPE                =                                              NVE
 STEP NUMBER                  =                                               36
 TIME [fs]                    =                                         3.600000
 CONSERVED QUANTITY [hartree] =                               0.728898827168E+00

                                              INSTANTANEOUS             AVERAGES
 CPU TIME [s]                 =                        0.01                 0.02
 ENERGY DRIFT PER ATOM [K]    =         -0.528136415732E-02  -0.481002813069E-02
 POTENTIAL ENERGY[hartree]    =          0.334515049936E+00   0.331970217656E+00
 KINETIC ENERGY [hartree]     =          0.394383777232E+00   0.396928980035E+00
 TEMPERATURE [K]              =                     336.131              338.300
 *******************************************************************************

 FOBSH| Put former active state           1 in new active state           1
 RANDOM_NUMBER_HOPPING_PROBA  0.54636093313877343     
 FOBSH| ACTIVE STATE =            1

 ENERGY| Total FORCE_EVAL ( MIXED ) energy (a.u.):             0.335241873313451

 FOBSH| CASE1: no hop and no trivial crossing
 ENTER integrator.F
 STEP NUMBER                  =           37
 CPU TIME [s]                 =    2.2544525563716888E-002   1.9330624465805451E-002

 *******************************************************************************
 ENSEMBLE TYPE                =                                              NVE
 STEP NUMBER                  =                                               37
 TIME [fs]                    =                                         3.700000
 CONSERVED QUANTITY [hartree] =                               0.728899250909E+00

                                              INSTANTANEOUS             AVERAGES
 CPU TIME [s]                 =                        0.02                 0.02
 ENERGY DRIFT PER ATOM [K]    =         -0.474182173997E-02  -0.480818471472E-02
 POTENTIAL ENERGY[hartree]    =          0.335241873313E+00   0.332058640782E+00
 KINETIC ENERGY [hartree]     =          0.393657377596E+00   0.396840558347E+00
 TEMPERATURE [K]              =                     335.512              338.225
 *******************************************************************************

 FOBSH| Put former active state           1 in new active state           1
 RANDOM_NUMBER_HOPPING_PROBA  0.77675724950747294     
 FOBSH| ACTIVE STATE =            1

 ENERGY| Total FORCE_EVAL ( MIXED ) energy (a.u.):             0.335991749485467

 FOBSH| CASE1: no hop and no trivial crossing
 ENTER integrator.F
 STEP NUMBER                  =           38
 CPU TIME [s]                 =    2.1372622810304165E-002   1.9384361264344889E-002

 *******************************************************************************
 ENSEMBLE TYPE                =                                              NVE
 STEP NUMBER                  =                                               38
 TIME [fs]                    =                                         3.800000
 CONSERVED QUANTITY [hartree] =                               0.728899696308E+00

                                              INSTANTANEOUS             AVERAGES
 CPU TIME [s]                 =                        0.02                 0.02
 ENERGY DRIFT PER ATOM [K]    =         -0.417470212343E-02  -0.479151412021E-02
 POTENTIAL ENERGY[hartree]    =          0.335991749485E+00   0.332162143643E+00
 KINETIC ENERGY [hartree]     =          0.392907946822E+00   0.396737068570E+00
 TEMPERATURE [K]              =                     334.873              338.136
 *******************************************************************************

 FOBSH| Put former active state           1 in new active state           1
 RANDOM_NUMBER_HOPPING_PROBA  0.88457025424358748     
 FOBSH| ACTIVE STATE =            1

 ENERGY| Total FORCE_EVAL ( MIXED ) energy (a.u.):             0.336757540430553

 FOBSH| CASE1: no hop and no trivial crossing
 ENTER integrator.F
 STEP NUMBER                  =           39
 CPU TIME [s]                 =    2.4115112610161304E-002   1.9505662580904283E-002

 *******************************************************************************
 ENSEMBLE TYPE                =                                              NVE
 STEP NUMBER                  =                                               39
 TIME [fs]                    =                                         3.900000
 CONSERVED QUANTITY [hartree] =                               0.728900156787E+00

                                              INSTANTANEOUS             AVERAGES
 CPU TIME [s]                 =                        0.02                 0.02
 ENERGY DRIFT PER ATOM [K]    =         -0.358838092472E-02  -0.476066455110E-02
 POTENTIAL ENERGY[hartree]    =          0.336757540431E+00   0.332279974330E+00
 KINETIC ENERGY [hartree]     =          0.392142616356E+00   0.396619262103E+00
 TEMPERATURE [K]              =                     334.221              338.036
 *******************************************************************************

 FOBSH| Put former active state           1 in new active state           1
 RANDOM_NUMBER_HOPPING_PROBA  0.17037134348350566     
 FOBSH| ACTIVE STATE =            1

 ENERGY| Total FORCE_EVAL ( MIXED ) energy (a.u.):             0.337531844015680

 FOBSH| CASE1: no hop and no trivial crossing
 ENTER integrator.F
 STEP NUMBER                  =           40
 CPU TIME [s]                 =    7.1572978049516678E-003   1.9196953461505468E-002

 *******************************************************************************
 ENSEMBLE TYPE                =                                              NVE
 STEP NUMBER                  =                                               40
 TIME [fs]                    =                                         4.000000
 CONSERVED QUANTITY [hartree] =                               0.728900630011E+00

                                              INSTANTANEOUS             AVERAGES
 CPU TIME [s]                 =                        0.01                 0.02
 ENERGY DRIFT PER ATOM [K]    =         -0.298583210566E-02  -0.471629373996E-02
 POTENTIAL ENERGY[hartree]    =          0.337531844016E+00   0.332411271072E+00
 KINETIC ENERGY [hartree]     =          0.391368785995E+00   0.396488000200E+00
 TEMPERATURE [K]              =                     333.561              337.924
 *******************************************************************************

 FOBSH| Put former active state           1 in new active state           1
 RANDOM_NUMBER_HOPPING_PROBA  0.67710379507336527     
 FOBSH| ACTIVE STATE =            1

 ENERGY| Total FORCE_EVAL ( MIXED ) energy (a.u.):             0.338307071302405

 FOBSH| CASE1: no hop and no trivial crossing
 ENTER integrator.F
 STEP NUMBER                  =           41
 CPU TIME [s]                 =    2.3218004964292049E-002   1.9295027888402701E-002

 *******************************************************************************
 ENSEMBLE TYPE                =                                              NVE
 STEP NUMBER                  =                                               41
 TIME [fs]                    =                                         4.100000
 CONSERVED QUANTITY [hartree] =                               0.728901108736E+00

                                              INSTANTANEOUS             AVERAGES
 CPU TIME [s]                 =                        0.02                 0.02
 ENERGY DRIFT PER ATOM [K]    =         -0.237627902061E-02  -0.465922021022E-02
 POTENTIAL ENERGY[hartree]    =          0.338307071302E+00   0.332555071077E+00
 KINETIC ENERGY [hartree]     =          0.390594037433E+00   0.396344245011E+00
 TEMPERATURE [K]              =                     332.901              337.802
 *******************************************************************************

 FOBSH| Put former active state           1 in new active state           1
 RANDOM_NUMBER_HOPPING_PROBA  0.84637635691237700     
 FOBSH| ACTIVE STATE =            1

 ENERGY| Total FORCE_EVAL ( MIXED ) energy (a.u.):             0.339075540559071

 FOBSH| CASE1: no hop and no trivial crossing
 ENTER integrator.F
 STEP NUMBER                  =           42
 CPU TIME [s]                 =    2.1636531688272953E-002   1.9350777978875799E-002

 *******************************************************************************
 ENSEMBLE TYPE                =                                              NVE
 STEP NUMBER                  =                                               42
 TIME [fs]                    =                                         4.200000
 CONSERVED QUANTITY [hartree] =                               0.728901587106E+00

                                              INSTANTANEOUS             AVERAGES
 CPU TIME [s]                 =                        0.02                 0.02
 ENERGY DRIFT PER ATOM [K]    =         -0.176717767466E-02  -0.459036205461E-02
 POTENTIAL ENERGY[hartree]    =          0.339075540559E+00   0.332710320351E+00
 KINETIC ENERGY [hartree]     =          0.389826046547E+00   0.396189049809E+00
 TEMPERATURE [K]              =                     332.246              337.669
 *******************************************************************************

 FOBSH| Put former active state           1 in new active state           1
 RANDOM_NUMBER_HOPPING_PROBA  0.86045091319218980     
 FOBSH| ACTIVE STATE =            1

 ENERGY| Total FORCE_EVAL ( MIXED ) energy (a.u.):             0.339829570987219

 FOBSH| CASE1: no hop and no trivial crossing
 ENTER integrator.F
 STEP NUMBER                  =           43
 CPU TIME [s]                 =    9.7054354846477509E-003   1.9126467688312356E-002

 *******************************************************************************
 ENSEMBLE TYPE                =                                              NVE
 STEP NUMBER                  =                                               43
 TIME [fs]                    =                                         4.300000
 CONSERVED QUANTITY [hartree] =                               0.728902059252E+00

                                              INSTANTANEOUS             AVERAGES
 CPU TIME [s]                 =                        0.01                 0.02
 ENERGY DRIFT PER ATOM [K]    =         -0.116600061971E-02  -0.451072574217E-02
 POTENTIAL ENERGY[hartree]    =          0.339829570987E+00   0.332875884319E+00
 KINETIC ENERGY [hartree]     =          0.389072488265E+00   0.396023548378E+00
 TEMPERATURE [K]              =                     331.604              337.528
 *******************************************************************************

 FOBSH| Put former active state           1 in new active state           1
 RANDOM_NUMBER_HOPPING_PROBA  0.54133034953770998     
 FOBSH| ACTIVE STATE =            1

 ENERGY| Total FORCE_EVAL ( MIXED ) energy (a.u.):             0.340561577325635

 FOBSH| CASE1: no hop and no trivial crossing
 ENTER integrator.F
 STEP NUMBER                  =           44
 CPU TIME [s]                 =    2.0072720013558865E-002   1.9147973422977051E-002

 *******************************************************************************
 ENSEMBLE TYPE                =                                              NVE
 STEP NUMBER                  =                                               44
 TIME [fs]                    =                                         4.400000
 CONSERVED QUANTITY [hartree] =                               0.728902519272E+00

                                              INSTANTANEOUS             AVERAGES
[...]

                                              INSTANTANEOUS             AVERAGES
 CPU TIME [s]                 =                        0.01                 0.02
 ENERGY DRIFT PER ATOM [K]    =         -0.110551799056E-01  -0.320513118351E-02
 POTENTIAL ENERGY[hartree]    =          0.327291785965E+00   0.343501956978E+00
 KINETIC ENERGY [hartree]     =          0.401602506620E+00   0.385398500869E+00
 TEMPERATURE [K]              =                     342.283              328.473
 *******************************************************************************

 FOBSH| Put former active state           1 in new active state           1
 RANDOM_NUMBER_HOPPING_PROBA  0.70876005022369570     
 FOBSH| ACTIVE STATE =            1

 ENERGY| Total FORCE_EVAL ( MIXED ) energy (a.u.):             0.327225391538795

 FOBSH| CASE1: no hop and no trivial crossing
 ENTER integrator.F
 STEP NUMBER                  =          191
 CPU TIME [s]                 =    1.0888693854212761E-002   1.8030246407651763E-002

 *******************************************************************************
 ENSEMBLE TYPE                =                                              NVE
 STEP NUMBER                  =                                              191
 TIME [fs]                    =                                        19.100000
 CONSERVED QUANTITY [hartree] =                               0.728894129573E+00

                                              INSTANTANEOUS             AVERAGES
 CPU TIME [s]                 =                        0.01                 0.02
 ENERGY DRIFT PER ATOM [K]    =         -0.112627412928E-01  -0.324731762387E-02
 POTENTIAL ENERGY[hartree]    =          0.327225391539E+00   0.343416739357E+00
 KINETIC ENERGY [hartree]     =          0.401668738034E+00   0.385483685356E+00
 TEMPERATURE [K]              =                     342.340              328.545
 *******************************************************************************

 FOBSH| Put former active state           1 in new active state           1
 RANDOM_NUMBER_HOPPING_PROBA  0.68417013629977330     
 FOBSH| ACTIVE STATE =            1

 ENERGY| Total FORCE_EVAL ( MIXED ) energy (a.u.):             0.327258216466420

 FOBSH| CASE1: no hop and no trivial crossing
 ENTER integrator.F
 STEP NUMBER                  =          192
 CPU TIME [s]                 =    2.1716731600463390E-002   1.8049446851364323E-002

 *******************************************************************************
 ENSEMBLE TYPE                =                                              NVE
 STEP NUMBER                  =                                              192
 TIME [fs]                    =                                        19.200000
 CONSERVED QUANTITY [hartree] =                               0.728894021560E+00

                                              INSTANTANEOUS             AVERAGES
 CPU TIME [s]                 =                        0.02                 0.02
 ENERGY DRIFT PER ATOM [K]    =         -0.114002723072E-01  -0.328978092952E-02
 POTENTIAL ENERGY[hartree]    =          0.327258216466E+00   0.343332580384E+00
 KINETIC ENERGY [hartree]     =          0.401635805094E+00   0.385567810980E+00
 TEMPERATURE [K]              =                     342.311              328.617
 *******************************************************************************

 FOBSH| Put former active state           1 in new active state           1
 RANDOM_NUMBER_HOPPING_PROBA  0.15725300081740698     
 FOBSH| ACTIVE STATE =            1

 ENERGY| Total FORCE_EVAL ( MIXED ) energy (a.u.):             0.327392075907194

 FOBSH| CASE1: no hop and no trivial crossing
 ENTER integrator.F
 STEP NUMBER                  =          193
 CPU TIME [s]                 =    1.0759456083178520E-002   1.8011674878472168E-002

 *******************************************************************************
 ENSEMBLE TYPE                =                                              NVE
 STEP NUMBER                  =                                              193
 TIME [fs]                    =                                        19.300000
 CONSERVED QUANTITY [hartree] =                               0.728893970442E+00

                                              INSTANTANEOUS             AVERAGES
 CPU TIME [s]                 =                        0.01                 0.02
 ENERGY DRIFT PER ATOM [K]    =         -0.114653600496E-01  -0.333214144309E-02
 POTENTIAL ENERGY[hartree]    =          0.327392075907E+00   0.343249987097E+00
 KINETIC ENERGY [hartree]     =          0.401501894535E+00   0.385650370998E+00
 TEMPERATURE [K]              =                     342.197              328.687
 *******************************************************************************

 FOBSH| Put former active state           1 in new active state           1
 RANDOM_NUMBER_HOPPING_PROBA  0.99264665308187350     
 FOBSH| ATTEMPTED_HOP
 FOBSH| ACTIVE STATE =            1

 ENERGY| Total FORCE_EVAL ( MIXED ) energy (a.u.):             0.327627900195463

 FOBSH| Active state before the attempt to hop:           1
 FOBSH| Active state after the attempt to hop:           1
 FOBSH| CASE4: rejected hop and good overlap
 ENTER integrator.F
 STEP NUMBER                  =          194
 CPU TIME [s]                 =    2.5517529807984829E-002   1.8050364852335635E-002

 *******************************************************************************
 ENSEMBLE TYPE                =                                              NVE
 STEP NUMBER                  =                                              194
 TIME [fs]                    =                                        19.400000
 CONSERVED QUANTITY [hartree] =                               0.728893974191E+00

                                              INSTANTANEOUS             AVERAGES
 CPU TIME [s]                 =                        0.03                 0.02
 ENERGY DRIFT PER ATOM [K]    =         -0.114605867249E-01  -0.337404064557E-02
 POTENTIAL ENERGY[hartree]    =          0.327627900195E+00   0.343169460875E+00
 KINETIC ENERGY [hartree]     =          0.401266073996E+00   0.385730864313E+00
 TEMPERATURE [K]              =                     341.996              328.756
 *******************************************************************************

 FOBSH| Put former active state           1 in new active state           1
 RANDOM_NUMBER_HOPPING_PROBA  0.92811593670586945     
 FOBSH| ACTIVE STATE =            1

 ENERGY| Total FORCE_EVAL ( MIXED ) energy (a.u.):             0.327891551289201

 FOBSH| CASE1: no hop and no trivial crossing
 ENTER integrator.F
 STEP NUMBER                  =          195
 CPU TIME [s]                 =    2.4205357767641544E-002   1.8081928918567972E-002

 *******************************************************************************
 ENSEMBLE TYPE                =                                              NVE
 STEP NUMBER                  =                                              195
 TIME [fs]                    =                                        19.500000
 CONSERVED QUANTITY [hartree] =                               0.728893924591E+00

                                              INSTANTANEOUS             AVERAGES
 CPU TIME [s]                 =                        0.02                 0.02
 ENERGY DRIFT PER ATOM [K]    =         -0.115237418387E-01  -0.341583398503E-02
 POTENTIAL ENERGY[hartree]    =          0.327891551289E+00   0.343091112621E+00
 KINETIC ENERGY [hartree]     =          0.401002373302E+00   0.385809179744E+00
 TEMPERATURE [K]              =                     341.772              328.823
 *******************************************************************************

 FOBSH| Put former active state           1 in new active state           1
 RANDOM_NUMBER_HOPPING_PROBA  0.90000456599540779     
 FOBSH| ACTIVE STATE =            1

 ENERGY| Total FORCE_EVAL ( MIXED ) energy (a.u.):             0.328255015186927

 FOBSH| CASE1: no hop and no trivial crossing
 ENTER integrator.F
 STEP NUMBER                  =          196
 CPU TIME [s]                 =    2.1353736519813538E-002   1.8098621814492691E-002

 *******************************************************************************
 ENSEMBLE TYPE                =                                              NVE
 STEP NUMBER                  =                                              196
 TIME [fs]                    =                                        19.600000
 CONSERVED QUANTITY [hartree] =                               0.728893943442E+00

                                              INSTANTANEOUS             AVERAGES
 CPU TIME [s]                 =                        0.02                 0.02
 ENERGY DRIFT PER ATOM [K]    =         -0.114997395635E-01  -0.345707840124E-02
 POTENTIAL ENERGY[hartree]    =          0.328255015187E+00   0.343015418247E+00
 KINETIC ENERGY [hartree]     =          0.400638928255E+00   0.385884841726E+00
 TEMPERATURE [K]              =                     341.462              328.887
 *******************************************************************************

 FOBSH| Put former active state           1 in new active state           1
 RANDOM_NUMBER_HOPPING_PROBA  0.70112724644934465     
 FOBSH| ACTIVE STATE =            1

 ENERGY| Total FORCE_EVAL ( MIXED ) energy (a.u.):             0.328717586439622

 FOBSH| CASE1: no hop and no trivial crossing
 ENTER integrator.F
 STEP NUMBER                  =          197
 CPU TIME [s]                 =    7.8074252232909203E-003   1.8046382237887605E-002

 *******************************************************************************
 ENSEMBLE TYPE                =                                              NVE
 STEP NUMBER                  =                                              197
 TIME [fs]                    =                                        19.700000
 CONSERVED QUANTITY [hartree] =                               0.728894032566E+00

                                              INSTANTANEOUS             AVERAGES
 CPU TIME [s]                 =                        0.01                 0.02
 ENERGY DRIFT PER ATOM [K]    =         -0.113862589817E-01  -0.349732804886E-02
 POTENTIAL ENERGY[hartree]    =          0.328717586440E+00   0.342942840420E+00
 KINETIC ENERGY [hartree]     =          0.400176446126E+00   0.385957387941E+00
 TEMPERATURE [K]              =                     341.068              328.949
 *******************************************************************************

 FOBSH| Put former active state           1 in new active state           1
 RANDOM_NUMBER_HOPPING_PROBA  0.19167188808036800     
 FOBSH| ACTIVE STATE =            1

 ENERGY| Total FORCE_EVAL ( MIXED ) energy (a.u.):             0.329277510599730

 FOBSH| CASE1: no hop and no trivial crossing
 ENTER integrator.F
 STEP NUMBER                  =          198
 CPU TIME [s]                 =    2.1628036163747311E-002   1.8064471399129322E-002

 *******************************************************************************
 ENSEMBLE TYPE                =                                              NVE
 STEP NUMBER                  =                                              198
 TIME [fs]                    =                                        19.800000
 CONSERVED QUANTITY [hartree] =                               0.728894187658E+00

                                              INSTANTANEOUS             AVERAGES
 CPU TIME [s]                 =                        0.02                 0.02
 ENERGY DRIFT PER ATOM [K]    =         -0.111887832694E-01  -0.353617378230E-02
 POTENTIAL ENERGY[hartree]    =          0.329277510600E+00   0.342873823603E+00
 KINETIC ENERGY [hartree]     =          0.399616677058E+00   0.386026374250E+00
 TEMPERATURE [K]              =                     340.591              329.008
 *******************************************************************************

 FOBSH| Put former active state           1 in new active state           1
 RANDOM_NUMBER_HOPPING_PROBA   6.4974916287414405E-002
 FOBSH| ACTIVE STATE =            1

 ENERGY| Total FORCE_EVAL ( MIXED ) energy (a.u.):             0.329932009626561

 FOBSH| CASE1: no hop and no trivial crossing
 ENTER integrator.F
 STEP NUMBER                  =          199
 CPU TIME [s]                 =    2.5259259156882763E-002   1.8100626111479841E-002

 *******************************************************************************
 ENSEMBLE TYPE                =                                              NVE
 STEP NUMBER                  =                                              199
 TIME [fs]                    =                                        19.900000
 CONSERVED QUANTITY [hartree] =                               0.728894405406E+00

                                              INSTANTANEOUS             AVERAGES
 CPU TIME [s]                 =                        0.03                 0.02
 ENERGY DRIFT PER ATOM [K]    =         -0.109115269482E-01  -0.357323585851E-02
 POTENTIAL ENERGY[hartree]    =          0.329932009627E+00   0.342808789362E+00
 KINETIC ENERGY [hartree]     =          0.398962395780E+00   0.386091379383E+00
 TEMPERATURE [K]              =                     340.033              329.063
 *******************************************************************************

 FOBSH| Put former active state           1 in new active state           1
 RANDOM_NUMBER_HOPPING_PROBA  0.26678893260939468     
 FOBSH| ACTIVE STATE =            1

 ENERGY| Total FORCE_EVAL ( MIXED ) energy (a.u.):             0.330677320903550

 FOBSH| CASE1: no hop and no trivial crossing
 ENTER integrator.F
 STEP NUMBER                  =          200
 CPU TIME [s]                 =    2.5209074839949608E-002   1.8136168355122190E-002

 *******************************************************************************
 ENSEMBLE TYPE                =                                              NVE
 STEP NUMBER                  =                                              200
 TIME [fs]                    =                                        20.000000
 CONSERVED QUANTITY [hartree] =                               0.728894685591E+00

                                              INSTANTANEOUS             AVERAGES
 CPU TIME [s]                 =                        0.03                 0.02
 ENERGY DRIFT PER ATOM [K]    =         -0.105547716553E-01  -0.360814353749E-02
 POTENTIAL ENERGY[hartree]    =          0.330677320904E+00   0.342748132019E+00
 KINETIC ENERGY [hartree]     =          0.398217364688E+00   0.386152009309E+00
 TEMPERATURE [K]              =                     339.398              329.115
 *******************************************************************************


 -------------------------------------------------------------------------------
 -                                                                             -
 -                                DBCSR STATISTICS                             -
 -                                                                             -
 -------------------------------------------------------------------------------
 COUNTER                                    TOTAL       BLAS       SMM       ACC
 flops total                                    0       0.0%      0.0%      0.0%
 flops max/rank                                 0       0.0%      0.0%      0.0%
 matmuls inhomo. stacks                         0       0.0%      0.0%      0.0%
 matmuls total                                  0       0.0%      0.0%      0.0%
 number of processed stacks                     0       0.0%      0.0%      0.0%
 average stack size                                     0.0       0.0       0.0
 marketing flops                     0.000000E+00
 -------------------------------------------------------------------------------

 MEMORY| Estimated peak process memory [MiB]                                 105

 -------------------------------------------------------------------------------
 -                                                                             -
 -                           R E F E R E N C E S                               -
 -                                                                             -
 -------------------------------------------------------------------------------
 
 CP2K version 4.0 (Development Version), the CP2K developers group (2015).
 CP2K is freely available from https://www.cp2k.org/ .

 Borstnik, U; VandeVondele, J; Weber, V; Hutter, J. 
 PARALLEL COMPUTING, 40 (5-6), 47-58 (2014). 
 Sparse matrix multiplication: The distributed block-compressed sparse
 row library.
 http://dx.doi.org/10.1016/j.parco.2014.03.012


 Hutter, J; Iannuzzi, M; Schiffmann, F; VandeVondele, J. 
 WILEY INTERDISCIPLINARY REVIEWS-COMPUTATIONAL MOLECULAR SCIENCE, 4 (1), 15-25 (2014). 
 CP2K: atomistic simulations of condensed matter systems.
 http://dx.doi.org/10.1002/wcms.1159


 Frigo, M; Johnson, SG. 
 PROCEEDINGS OF THE IEEE, 93 (2), 216-231 (2005). 
 The design and implementation of FFTW3.
 http://dx.doi.org/10.1109/JPROC.2004.840301


 -------------------------------------------------------------------------------
 -                                                                             -
 -                                T I M I N G                                  -
 -                                                                             -
 -------------------------------------------------------------------------------
 SUBROUTINE                       CALLS  ASD         SELF TIME        TOTAL TIME
                                MAXIMUM       AVERAGE  MAXIMUM  AVERAGE  MAXIMUM
 CP2K                                 1  1.0    0.027    0.027   22.632   22.632
 topology_control                     3  4.0    0.469    0.469   18.228   18.228
 connectivity_control                 3  5.0    0.039    0.039   17.635   17.635
 read_topology_psf                  384  6.0    7.843    7.843   17.594   17.594
 fist_create_force_env                2  2.0    0.000    0.000   12.195   12.195
 fist_init                            2  3.0    0.011    0.011   12.195   12.195
 parser_read_line                  7347  6.8    0.111    0.111   10.300   10.300
 parser_read_line_low               405  8.0   10.183   10.183   10.188   10.188
 mixed_create_force_env               1  2.0    0.000    0.000    6.692    6.692
 mixed_init                           1  3.0    0.000    0.000    6.692    6.692
 qs_mol_dyn_low                       1  2.0    0.049    0.049    3.676    3.676
 velocity_verlet                    200  3.0    1.087    1.087    1.804    1.804
 md_output                          200  3.0    0.001    0.001    1.740    1.740
 md_write_output                    201  4.0    1.636    1.636    1.714    1.714
 force_field_control                  2  4.0    0.000    0.000    0.643    0.643
 read_force_field_charmm              2  5.0    0.163    0.163    0.623    0.623
 fist_calc_energy_force             402  4.0    0.036    0.036    0.615    0.615
 -------------------------------------------------------------------------------

 The number of warnings for this run is : 1
 
 -------------------------------------------------------------------------------
  **** **** ******  **  PROGRAM ENDED AT                 2021-02-12 16:43:59.199
 ***** ** ***  *** **   PROGRAM RAN ON                   bulstake.phys.ucl.ac.uk
 **    ****   ******    PROGRAM RAN BY                                 sgiannini
 ***** **    ** ** **   PROGRAM PROCESS ID                                  3501
  **** **  *******  **  PROGRAM STOPPED IN /scratch/sgiannini/FOB-SH-REGTESTS_/3
                                           3-XXX_code_extension_V2/run-fssh-3NAP
                                           -3ANT-actANT-2FF
