 DBCSR| Multiplication driver                                               XSMM
 DBCSR| Multrec recursion limit                                              512
 DBCSR| Multiplication stack size                                           1000
 DBCSR| Maximum elements for images                                    UNLIMITED
 DBCSR| Randmat seed                                                    12341313
 DBCSR| Multiplication size stacks                                             3


  **** **** ******  **  PROGRAM STARTED AT               2021-01-14 05:47:13.909
 ***** ** ***  *** **   PROGRAM STARTED ON               bulstake.phys.ucl.ac.uk
 **    ****   ******    PROGRAM STARTED BY                             sgiannini
 ***** **    ** ** **   PROGRAM PROCESS ID                                 12716
  **** **  *******  **  PROGRAM STARTED IN /scratch/sgiannini/FOB-SH-REGTESTS_/3
                                           2-XXXX_code_extension_V2/run-fssh-BOM
                                           D

 CP2K| version string:                    CP2K version 4.0 (Development Version)
 CP2K| source code revision number:                                  git:3649ac3
 CP2K| cp2kflags: libint fftw3 libxc quip smm_dnn smm libxsmm libderiv_max_am1=5
 CP2K|             libint_max_am=6
 CP2K| is freely available from                            https://www.cp2k.org/
 CP2K| Program compiled at                          Wed  6 Jan 14:38:30 GMT 2021
 CP2K| Program compiled on                               bulstake.phys.ucl.ac.uk
 CP2K| Program compiled for                                                local
 CP2K| Data directory path           /scratch/sgiannini/flavoured-cptk/cp2k/data
 CP2K| Input file name                                                   run.inp

 GLOBAL| Force Environment number                                              1
 GLOBAL| Basis set file name                                           POTENTIAL
 GLOBAL| MM Potential file name                                     MM_POTENTIAL
 GLOBAL| Coordinate file name                                       pos-init.xyz
 GLOBAL| Force Environment number                                              2
 GLOBAL| Basis set file name                                           POTENTIAL
 GLOBAL| MM Potential file name                                     MM_POTENTIAL
 GLOBAL| Coordinate file name                                       pos-init.xyz
 GLOBAL| Force Environment number                                              3
 GLOBAL| Basis set file name                                           POTENTIAL
 GLOBAL| MM Potential file name                                     MM_POTENTIAL
 GLOBAL| Coordinate file name                                       pos-init.xyz
 GLOBAL| Method name                                                        CP2K
 GLOBAL| Project name                                                        run
 GLOBAL| Preferred FFT library                                             FFTW3
 GLOBAL| Preferred diagonalization lib.                                       SL
 GLOBAL| Run type                                                             MD
 GLOBAL| All-to-all communication in single precision                          F
 GLOBAL| FFTs using library dependent lengths                                  F
 GLOBAL| Global print level                                                  LOW
 GLOBAL| Total number of message passing processes                             1
 GLOBAL| Number of threads for this process                                    1
 GLOBAL| This output is from process                                           0
 GLOBAL| CPU model name :  Intel(R) Xeon(R) CPU E5-2687W v4 @ 3.00GHz

 MEMORY| system memory details [Kb]
 MEMORY|                        rank 0           min           max       average
 MEMORY| MemTotal             65894336      65894336      65894336      65894336
 MEMORY| MemFree               1070188       1070188       1070188       1070188
 MEMORY| Buffers                  8744          8744          8744          8744
 MEMORY| Cached               55012216      55012216      55012216      55012216
 MEMORY| Slab                  1947384       1947384       1947384       1947384
 MEMORY| SReclaimable          1698944       1698944       1698944       1698944
 MEMORY| MemLikelyFree        57790092      57790092      57790092      57790092

 TOTAL NUMBER OF FORCE EVALS           3
 NOTE:n_subforce_eval           2
 DECOMP =  T
 DECOMP =  T

 MD| Molecular Dynamics Protocol 
 MD| Ensemble Type                                                           NVE
 MD| Number of Time Steps                                                    200
 MD| Time Step [fs]                                                         0.10
 MD| Temperature [K]                                                      400.00
 MD| Temperature tolerance [K]                                              0.00
 MD| Print MD information every                                        1 step(s)
 MD| File type     Print frequency[steps]                             File names
 MD| Coordinates          200                                      run-pos-1.xyz
 MD| Velocities             1                                      run-vel-1.xyz
 MD| Energies               1                                         run-1.ener
 MD| Dump                 200                                      run-1.restart

 ROT| Rotational Analysis Info 
 ROT| Principal axes and moments of inertia in atomic units:
 ROT|                                1                 2                 3
 ROT| EIGENVALUES            0.319196005E+10   0.583971964E+10   0.882037602E+10
 ROT|      X                     0.997631408       0.066105605       0.019016393
 ROT|      Y                     0.066118536      -0.997811774      -0.000051363
 ROT|      Z                    -0.018971385      -0.001308578       0.999819171
 ROT| Numer of Rotovibrational vectors:     6

 Calculation of degrees of freedom
                                                      Number of atoms:       900
                                 Number of Intramolecular constraints:         0
                                 Number of Intermolecular constraints:         0
                                  Invariants(translation + rotations):         3
                                                   Degrees of freedom:      2697


 Restraints Information
                                  Number of Intramolecular restraints:         0
                                  Number of Intermolecular restraints:         0

 *** WARNING in motion/thermostat/thermostat_methods.F:280 :: Thermostat ***
 *** for Particles has been defined but the ensemble provided does not   ***
 *** support thermostat for Particles! Ignoring thermostat input.        ***

 ************************** Velocities initialization **************************
 Initial Temperature                                                    564.84 K
 COM velocity:           -0.000000000004     -0.000000000000      0.000000000001
 *******************************************************************************

 FIRST CALL: force_env_calc_energy_force
 RESTART_KEY F
 FOB-SH: ALLOCATION OF S MATRICES
 Lookup table files:
 ../topologies/S_psigma.txt                                                      
 ../topologies/S_ppi.txt                                                         
 ../topologies/S_psigma_carbon_sulfur.dat                                        
 ../topologies/S_ppi_carbon_sulfur.dat                                           
 ../topologies/S_psigma_sulfur_sulfur.dat                                        
 ../topologies/S_ppi_sulfur_sulfur.dat                                           
 C-S psigma nrows     1166666
 C-S ppi nrows     1166666
 S-S psigma nrows     1166666
 S-S ppi nrows     1166666
 FOBSH| ACTIVE STATE =            1

 ENERGY| Total FORCE_EVAL ( MIXED ) energy (a.u.):             2.440744520043525

 STEP NUMBER                  =            0
 CPU TIME [s]                 =    0.0000000000000000        0.0000000000000000     

 MD_ENERGIES| Initialization proceeding


 ******************************** GO CP2K GO! **********************************
 INITIAL POTENTIAL ENERGY[hartree]     =                      0.244074452004E+01
 INITIAL KINETIC ENERGY[hartree]       =                      0.241212372912E+01
 INITIAL TEMPERATURE[K]                =                                 564.841
 INITIAL VOLUME[bohr^3]                =                      0.580604601118E+05
 INITIAL CELL LNTHS[bohr]   =      0.7651501E+02   0.5624770E+02   0.1634991E+02
 INITIAL CELL ANGLS[deg]    =      0.9000000E+02   0.1244000E+03   0.9000000E+02
 ******************************** GO CP2K GO! **********************************
 FOBSH| *** OFF-DIAGONAL GRADIENT CALCULATION
 FOBSH| Put former active state           1 in new active state           1
 FOBSH| ACTIVE STATE =            1

 ENERGY| Total FORCE_EVAL ( MIXED ) energy (a.u.):             2.411925256089746

 FOBSH| CASE1: no hop and no trivial crossing
 ENTER integrator.F
 STEP NUMBER                  =            1
 CPU TIME [s]                 =    66.073130024131387        66.073130024131387     

 *******************************************************************************
 ENSEMBLE TYPE                =                                              NVE
 STEP NUMBER                  =                                                1
 TIME [fs]                    =                                         0.100000
 CONSERVED QUANTITY [hartree] =                               0.485284605759E+01

                                              INSTANTANEOUS             AVERAGES
 CPU TIME [s]                 =                       66.07                66.07
 ENERGY DRIFT PER ATOM [K]    =         -0.778615416355E-02   0.000000000000E+00
 POTENTIAL ENERGY[hartree]    =          0.241192525609E+01   0.241192525609E+01
 KINETIC ENERGY [hartree]     =          0.244092080150E+01   0.244092080150E+01
 TEMPERATURE [K]              =                     571.584              571.584
 *******************************************************************************

 FOBSH| *** OFF-DIAGONAL GRADIENT CALCULATION
 FOBSH| Put former active state           1 in new active state           1
 FOBSH| ACTIVE STATE =            1

 ENERGY| Total FORCE_EVAL ( MIXED ) energy (a.u.):             2.384488167264032

 FOBSH| CASE1: no hop and no trivial crossing
 ENTER integrator.F
 STEP NUMBER                  =            2
 CPU TIME [s]                 =    7.5933294836431742E-002   33.074531659483910     

 *******************************************************************************
 ENSEMBLE TYPE                =                                              NVE
 STEP NUMBER                  =                                                2
 TIME [fs]                    =                                         0.200000
 CONSERVED QUANTITY [hartree] =                               0.485282518620E+01

                                              INSTANTANEOUS             AVERAGES
 CPU TIME [s]                 =                        0.08                33.07
 ENERGY DRIFT PER ATOM [K]    =         -0.151091027701E-01  -0.755455138503E-02
 POTENTIAL ENERGY[hartree]    =          0.238448816726E+01   0.239820671168E+01
 KINETIC ENERGY [hartree]     =          0.246833701894E+01   0.245462891022E+01
 TEMPERATURE [K]              =                     578.004              574.794
 *******************************************************************************

 FOBSH| *** OFF-DIAGONAL GRADIENT CALCULATION
 FOBSH| Put former active state           1 in new active state           1
 FOBSH| ACTIVE STATE =            1

 ENERGY| Total FORCE_EVAL ( MIXED ) energy (a.u.):             2.358764946820091

 FOBSH| CASE1: no hop and no trivial crossing
 ENTER integrator.F
 STEP NUMBER                  =            3
 CPU TIME [s]                 =    7.4883619789034128E-002   22.074648979585618     

 *******************************************************************************
 ENSEMBLE TYPE                =                                              NVE
 STEP NUMBER                  =                                                3
 TIME [fs]                    =                                         0.300000
 CONSERVED QUANTITY [hartree] =                               0.485280591470E+01

                                              INSTANTANEOUS             AVERAGES
 CPU TIME [s]                 =                        0.07                22.07
 ENERGY DRIFT PER ATOM [K]    =         -0.218707160849E-01  -0.123266062850E-01
 POTENTIAL ENERGY[hartree]    =          0.235876494682E+01   0.238505945672E+01
 KINETIC ENERGY [hartree]     =          0.249404096788E+01   0.246776626277E+01
 TEMPERATURE [K]              =                     584.023              577.870
 *******************************************************************************

 FOBSH| *** OFF-DIAGONAL GRADIENT CALCULATION
 FOBSH| Put former active state           1 in new active state           1
 FOBSH| ACTIVE STATE =            1

 ENERGY| Total FORCE_EVAL ( MIXED ) energy (a.u.):             2.335061625638115

 FOBSH| CASE1: no hop and no trivial crossing
 ENTER integrator.F
 STEP NUMBER                  =            4
 CPU TIME [s]                 =    7.5043671298772097E-002   16.574747652513906     

 *******************************************************************************
 ENSEMBLE TYPE                =                                              NVE
 STEP NUMBER                  =                                                4
 TIME [fs]                    =                                         0.400000
 CONSERVED QUANTITY [hartree] =                               0.485278848487E+01

                                              INSTANTANEOUS             AVERAGES
 CPU TIME [s]                 =                        0.08                16.57
 ENERGY DRIFT PER ATOM [K]    =         -0.279861599673E-01  -0.162414947056E-01
 POTENTIAL ENERGY[hartree]    =          0.233506162564E+01   0.237255999895E+01
 KINETIC ENERGY [hartree]     =          0.251772685923E+01   0.248025641189E+01
 TEMPERATURE [K]              =                     589.569              580.795
 *******************************************************************************

 FOBSH| *** OFF-DIAGONAL GRADIENT CALCULATION
 FOBSH| Put former active state           1 in new active state           1
 FOBSH| ACTIVE STATE =            1

 ENERGY| Total FORCE_EVAL ( MIXED ) energy (a.u.):             2.313654667766931

 FOBSH| CASE1: no hop and no trivial crossing
 ENTER integrator.F
 STEP NUMBER                  =            5
 CPU TIME [s]                 =    7.4938043020665646E-002   13.274785730615259     

 *******************************************************************************
 ENSEMBLE TYPE                =                                              NVE
 STEP NUMBER                  =                                                5
 TIME [fs]                    =                                         0.500000
 CONSERVED QUANTITY [hartree] =                               0.485277311835E+01

                                              INSTANTANEOUS             AVERAGES
 CPU TIME [s]                 =                        0.07                13.27
 ENERGY DRIFT PER ATOM [K]    =         -0.333776684248E-01  -0.196687294494E-01
 POTENTIAL ENERGY[hartree]    =          0.231365466777E+01   0.236077893272E+01
 KINETIC ENERGY [hartree]     =          0.253911845058E+01   0.249202881962E+01
 TEMPERATURE [K]              =                     594.579              583.552
 *******************************************************************************

 FOBSH| *** OFF-DIAGONAL GRADIENT CALCULATION
 FOBSH| Put former active state           1 in new active state           1
 FOBSH| ACTIVE STATE =            1

 ENERGY| Total FORCE_EVAL ( MIXED ) energy (a.u.):             2.294787473145960

 FOBSH| CASE1: no hop and no trivial crossing
 ENTER integrator.F
 STEP NUMBER                  =            6
 CPU TIME [s]                 =    7.4861573986709118E-002   11.074798371177167     

 *******************************************************************************
 ENSEMBLE TYPE                =                                              NVE
 STEP NUMBER                  =                                                6
 TIME [fs]                    =                                         0.600000
 CONSERVED QUANTITY [hartree] =                               0.485275999095E+01

                                              INSTANTANEOUS             AVERAGES
 CPU TIME [s]                 =                        0.07                11.07
 ENERGY DRIFT PER ATOM [K]    =         -0.379835555625E-01  -0.227212004683E-01
 POTENTIAL ENERGY[hartree]    =          0.229478747315E+01   0.234978035612E+01
 KINETIC ENERGY [hartree]     =          0.255797251781E+01   0.250301943599E+01
 TEMPERATURE [K]              =                     598.994              586.125
 *******************************************************************************

 FOBSH| *** OFF-DIAGONAL GRADIENT CALCULATION
 FOBSH| Put former active state           1 in new active state           1
 FOBSH| ACTIVE STATE =            1

 ENERGY| Total FORCE_EVAL ( MIXED ) energy (a.u.):             2.278667366736632

 FOBSH| CASE1: no hop and no trivial crossing
 ENTER integrator.F
 STEP NUMBER                  =            7
 CPU TIME [s]                 =    7.4805562850087881E-002   9.5033708271304409     

 *******************************************************************************
 ENSEMBLE TYPE                =                                              NVE
 STEP NUMBER                  =                                                7
 TIME [fs]                    =                                         0.700000
 CONSERVED QUANTITY [hartree] =                               0.485274928821E+01

                                              INSTANTANEOUS             AVERAGES
 CPU TIME [s]                 =                        0.07                 9.50
 ENERGY DRIFT PER ATOM [K]    =         -0.417387259463E-01  -0.254379898223E-01
 POTENTIAL ENERGY[hartree]    =          0.227866736674E+01   0.233962135764E+01
 KINETIC ENERGY [hartree]     =          0.257408192148E+01   0.251317121963E+01
 TEMPERATURE [K]              =                     602.766              588.503
 *******************************************************************************

 FOBSH| *** OFF-DIAGONAL GRADIENT CALCULATION
 FOBSH| Put former active state           1 in new active state           1
 FOBSH| ACTIVE STATE =            1

 ENERGY| Total FORCE_EVAL ( MIXED ) energy (a.u.):             2.265462933440630

 FOBSH| CASE1: no hop and no trivial crossing
 ENTER integrator.F
 STEP NUMBER                  =            8
 CPU TIME [s]                 =    7.4668556917458773E-002   8.3247830433538184     

 *******************************************************************************
 ENSEMBLE TYPE                =                                              NVE
 STEP NUMBER                  =                                                8
 TIME [fs]                    =                                         0.800000
 CONSERVED QUANTITY [hartree] =                               0.485274112395E+01

                                              INSTANTANEOUS             AVERAGES
 CPU TIME [s]                 =                        0.07                 8.32
 ENERGY DRIFT PER ATOM [K]    =         -0.446032469980E-01  -0.278336469692E-01
 POTENTIAL ENERGY[hartree]    =          0.226546293344E+01   0.233035155461E+01
 KINETIC ENERGY [hartree]     =          0.258727819050E+01   0.252243459099E+01
 TEMPERATURE [K]              =                     605.856              590.672
 *******************************************************************************

 FOBSH| *** OFF-DIAGONAL GRADIENT CALCULATION
 FOBSH| Put former active state           1 in new active state           1
 FOBSH| ACTIVE STATE =            1

 ENERGY| Total FORCE_EVAL ( MIXED ) energy (a.u.):             2.255301993550194

 FOBSH| CASE1: no hop and no trivial crossing
 ENTER integrator.F
 STEP NUMBER                  =            9
 CPU TIME [s]                 =    7.4656783137470484E-002   7.4081023477742241     

 *******************************************************************************
 ENSEMBLE TYPE                =                                              NVE
 STEP NUMBER                  =                                                9
 TIME [fs]                    =                                         0.900000
 CONSERVED QUANTITY [hartree] =                               0.485273560616E+01

                                              INSTANTANEOUS             AVERAGES
 CPU TIME [s]                 =                        0.07                 7.41
 ENERGY DRIFT PER ATOM [K]    =         -0.465392195907E-01  -0.299120439272E-01
 POTENTIAL ENERGY[hartree]    =          0.225530199355E+01   0.232201271449E+01
 KINETIC ENERGY [hartree]     =          0.259743361261E+01   0.253076781561E+01
 TEMPERATURE [K]              =                     608.234              592.623
 *******************************************************************************

 FOBSH| *** OFF-DIAGONAL GRADIENT CALCULATION
 FOBSH| Put former active state           1 in new active state           1
 FOBSH| ACTIVE STATE =            1

 ENERGY| Total FORCE_EVAL ( MIXED ) energy (a.u.):             2.248270004288308

 FOBSH| CASE1: no hop and no trivial crossing
 ENTER integrator.F
 STEP NUMBER                  =           10
 CPU TIME [s]                 =    7.4446174781769514E-002   6.6747367304749794     

 *******************************************************************************
 ENSEMBLE TYPE                =                                              NVE
 STEP NUMBER                  =                                               10
 TIME [fs]                    =                                         1.000000
 CONSERVED QUANTITY [hartree] =                               0.485273278754E+01

                                              INSTANTANEOUS             AVERAGES
 CPU TIME [s]                 =                        0.07                 6.67
 ENERGY DRIFT PER ATOM [K]    =         -0.475281640443E-01  -0.316736559389E-01
 POTENTIAL ENERGY[hartree]    =          0.224827000429E+01   0.231463844347E+01
 KINETIC ENERGY [hartree]     =          0.260446278325E+01   0.253813731238E+01
 TEMPERATURE [K]              =                     609.880              594.349
 *******************************************************************************

 FOBSH| *** OFF-DIAGONAL GRADIENT CALCULATION
 FOBSH| Put former active state           1 in new active state           1
 FOBSH| ACTIVE STATE =            1

 ENERGY| Total FORCE_EVAL ( MIXED ) energy (a.u.):             2.244409106534693

 FOBSH| CASE1: no hop and no trivial crossing
 ENTER integrator.F
 STEP NUMBER                  =           11
 CPU TIME [s]                 =    7.5279936194419861E-002   6.0747861128131095     

 *******************************************************************************
 ENSEMBLE TYPE                =                                              NVE
 STEP NUMBER                  =                                               11
 TIME [fs]                    =                                         1.100000
 CONSERVED QUANTITY [hartree] =                               0.485273270934E+01

                                              INSTANTANEOUS             AVERAGES
 CPU TIME [s]                 =                        0.08                 6.07
 ENERGY DRIFT PER ATOM [K]    =         -0.475556001681E-01  -0.331174690506E-01
 POTENTIAL ENERGY[hartree]    =          0.224440910653E+01   0.230825395830E+01
 KINETIC ENERGY [hartree]     =          0.260832360281E+01   0.254451788424E+01
 TEMPERATURE [K]              =                     610.784              595.843
 *******************************************************************************

 FOBSH| *** OFF-DIAGONAL GRADIENT CALCULATION
 FOBSH| Put former active state           1 in new active state           1
 FOBSH| ACTIVE STATE =            1

 ENERGY| Total FORCE_EVAL ( MIXED ) energy (a.u.):             2.243717650881741

 FOBSH| CASE1: no hop and no trivial crossing
 ENTER integrator.F
 STEP NUMBER                  =           12
 CPU TIME [s]                 =    7.4681334197521210E-002   5.5747773812618107     

 *******************************************************************************
 ENSEMBLE TYPE                =                                              NVE
 STEP NUMBER                  =                                               12
 TIME [fs]                    =                                         1.200000
 CONSERVED QUANTITY [hartree] =                               0.485273533772E+01

                                              INSTANTANEOUS             AVERAGES
 CPU TIME [s]                 =                        0.07                 5.57
 ENERGY DRIFT PER ATOM [K]    =         -0.466334056954E-01  -0.342437971044E-01
 POTENTIAL ENERGY[hartree]    =          0.224371765088E+01   0.230287593268E+01
 KINETIC ENERGY [hartree]     =          0.260901768684E+01   0.254989286779E+01
 TEMPERATURE [K]              =                     610.947              597.102
 *******************************************************************************

 FOBSH| *** OFF-DIAGONAL GRADIENT CALCULATION
 FOBSH| Put former active state           1 in new active state           1
 FOBSH| ACTIVE STATE =            1

 ENERGY| Total FORCE_EVAL ( MIXED ) energy (a.u.):             2.246150480088573

 FOBSH| CASE1: no hop and no trivial crossing
 ENTER integrator.F
 STEP NUMBER                  =           13
 CPU TIME [s]                 =    7.4320295825600624E-002   5.1516652977667174     

 *******************************************************************************
 ENSEMBLE TYPE                =                                              NVE
 STEP NUMBER                  =                                               13
 TIME [fs]                    =                                         1.300000
 CONSERVED QUANTITY [hartree] =                               0.485274064428E+01

                                              INSTANTANEOUS             AVERAGES
 CPU TIME [s]                 =                        0.07                 5.15
 ENERGY DRIFT PER ATOM [K]    =         -0.447715439263E-01  -0.350536237830E-01
 POTENTIAL ENERGY[hartree]    =          0.224615048009E+01   0.229851243633E+01
 KINETIC ENERGY [hartree]     =          0.260659016419E+01   0.255425419828E+01
 TEMPERATURE [K]              =                     610.378              598.123
 *******************************************************************************

 FOBSH| *** OFF-DIAGONAL GRADIENT CALCULATION
 FOBSH| Put former active state           1 in new active state           1
 FOBSH| ACTIVE STATE =            1

 ENERGY| Total FORCE_EVAL ( MIXED ) energy (a.u.):             2.251619584325294

 FOBSH| CASE1: no hop and no trivial crossing
 ENTER integrator.F
 STEP NUMBER                  =           14
 CPU TIME [s]                 =    7.4288113974034786E-002   4.7889954989243826     

 *******************************************************************************
 ENSEMBLE TYPE                =                                              NVE
 STEP NUMBER                  =                                               14
 TIME [fs]                    =                                         1.400000
 CONSERVED QUANTITY [hartree] =                               0.485274854153E+01

                                              INSTANTANEOUS             AVERAGES
 CPU TIME [s]                 =                        0.07                 4.79
 ENERGY DRIFT PER ATOM [K]    =         -0.420007071168E-01  -0.355498440211E-01
 POTENTIAL ENERGY[hartree]    =          0.225161958433E+01   0.229516294690E+01
 KINETIC ENERGY [hartree]     =          0.260112895721E+01   0.255760239534E+01
 TEMPERATURE [K]              =                     609.099              598.907
 *******************************************************************************

 FOBSH| *** OFF-DIAGONAL GRADIENT CALCULATION
 FOBSH| Put former active state           1 in new active state           1
 FOBSH| ACTIVE STATE =            1

 ENERGY| Total FORCE_EVAL ( MIXED ) energy (a.u.):             2.259995401905569

 FOBSH| CASE1: no hop and no trivial crossing
 ENTER integrator.F
 STEP NUMBER                  =           15
 CPU TIME [s]                 =    7.4963821098208427E-002   4.4747267204026384     

 *******************************************************************************
 ENSEMBLE TYPE                =                                              NVE
 STEP NUMBER                  =                                               15
 TIME [fs]                    =                                         1.500000
 CONSERVED QUANTITY [hartree] =                               0.485275892467E+01

                                              INSTANTANEOUS             AVERAGES
 CPU TIME [s]                 =                        0.07                 4.47
 ENERGY DRIFT PER ATOM [K]    =         -0.383576706579E-01  -0.357370324636E-01
 POTENTIAL ENERGY[hartree]    =          0.225999540191E+01   0.229281844390E+01
 KINETIC ENERGY [hartree]     =          0.259276352277E+01   0.255994647051E+01
 TEMPERATURE [K]              =                     607.141              599.456
 *******************************************************************************

 FOBSH| *** OFF-DIAGONAL GRADIENT CALCULATION
 FOBSH| Put former active state           1 in new active state           1
 FOBSH| ACTIVE STATE =            1

 ENERGY| Total FORCE_EVAL ( MIXED ) energy (a.u.):             2.271108602514220

 FOBSH| CASE1: no hop and no trivial crossing
 ENTER integrator.F
 STEP NUMBER                  =           16
 CPU TIME [s]                 =    7.4499733746051788E-002   4.1997125337366015     

 *******************************************************************************
 ENSEMBLE TYPE                =                                              NVE
 STEP NUMBER                  =                                               16
 TIME [fs]                    =                                         1.600000
 CONSERVED QUANTITY [hartree] =                               0.485277163392E+01

                                              INSTANTANEOUS             AVERAGES
 CPU TIME [s]                 =                        0.07                 4.20
 ENERGY DRIFT PER ATOM [K]    =         -0.338984938271E-01  -0.356221237988E-01
 POTENTIAL ENERGY[hartree]    =          0.227110860251E+01   0.229146157881E+01
 KINETIC ENERGY [hartree]     =          0.258166303141E+01   0.256130375556E+01
 TEMPERATURE [K]              =                     604.541              599.774
 *******************************************************************************

 FOBSH| *** OFF-DIAGONAL GRADIENT CALCULATION
 FOBSH| Put former active state           1 in new active state           1
 FOBSH| ACTIVE STATE =            1

 ENERGY| Total FORCE_EVAL ( MIXED ) energy (a.u.):             2.284752547070452

 FOBSH| CASE1: no hop and no trivial crossing
 ENTER integrator.F
 STEP NUMBER                  =           17
 CPU TIME [s]                 =    7.4829698074609041E-002   3.9570723669329548     

 *******************************************************************************
 ENSEMBLE TYPE                =                                              NVE
 STEP NUMBER                  =                                               17
 TIME [fs]                    =                                         1.700000
 CONSERVED QUANTITY [hartree] =                               0.485278649102E+01

                                              INSTANTANEOUS             AVERAGES
 CPU TIME [s]                 =                        0.07                 3.96
 ENERGY DRIFT PER ATOM [K]    =         -0.286857232668E-01  -0.352141002381E-01
 POTENTIAL ENERGY[hartree]    =          0.228475254707E+01   0.229106692989E+01
 KINETIC ENERGY [hartree]     =          0.256803394395E+01   0.256169964900E+01
 TEMPERATURE [K]              =                     601.350              599.866
 *******************************************************************************

 FOBSH| *** OFF-DIAGONAL GRADIENT CALCULATION
 FOBSH| Put former active state           1 in new active state           1
 FOBSH| ACTIVE STATE =            1

 ENERGY| Total FORCE_EVAL ( MIXED ) energy (a.u.):             2.300686146922565

 FOBSH| CASE1: no hop and no trivial crossing
 ENTER integrator.F
 STEP NUMBER                  =           18
 CPU TIME [s]                 =    7.4410090222954750E-002   3.7413689071157323     

 *******************************************************************************
 ENSEMBLE TYPE                =                                              NVE
 STEP NUMBER                  =                                               18
 TIME [fs]                    =                                         1.800000
 CONSERVED QUANTITY [hartree] =                               0.485280329598E+01

                                              INSTANTANEOUS             AVERAGES
 CPU TIME [s]                 =                        0.07                 3.74
 ENERGY DRIFT PER ATOM [K]    =         -0.227895224894E-01  -0.345238459187E-01
 POTENTIAL ENERGY[hartree]    =          0.230068614692E+01   0.229160133083E+01
 KINETIC ENERGY [hartree]     =          0.255211714906E+01   0.256116728789E+01
 TEMPERATURE [K]              =                     597.622              599.742
 *******************************************************************************

 FOBSH| *** OFF-DIAGONAL GRADIENT CALCULATION
 FOBSH| Put former active state           1 in new active state           1
 FOBSH| ACTIVE STATE =            1

 ENERGY| Total FORCE_EVAL ( MIXED ) energy (a.u.):             2.318637131651060

 FOBSH| CASE1: no hop and no trivial crossing
 ENTER integrator.F
 STEP NUMBER                  =           19
 CPU TIME [s]                 =    7.4479273054748774E-002   3.5483747158493650     

 *******************************************************************************
 ENSEMBLE TYPE                =                                              NVE
 STEP NUMBER                  =                                               19
 TIME [fs]                    =                                         1.900000
 CONSERVED QUANTITY [hartree] =                               0.485282182302E+01

                                              INSTANTANEOUS             AVERAGES
 CPU TIME [s]                 =                        0.07                 3.55
 ENERGY DRIFT PER ATOM [K]    =         -0.162891122812E-01  -0.335641230957E-01
 POTENTIAL ENERGY[hartree]    =          0.231863713165E+01   0.229302426772E+01
 KINETIC ENERGY [hartree]     =          0.253418469137E+01   0.255974715123E+01
 TEMPERATURE [K]              =                     593.423              599.409
 *******************************************************************************

 FOBSH| *** OFF-DIAGONAL GRADIENT CALCULATION
 FOBSH| Put former active state           1 in new active state           1
 FOBSH| ACTIVE STATE =            1

 ENERGY| Total FORCE_EVAL ( MIXED ) energy (a.u.):             2.338305717874621

 FOBSH| CASE1: no hop and no trivial crossing
 ENTER integrator.F
 STEP NUMBER                  =           20
 CPU TIME [s]                 =    7.4468292761594057E-002   3.3746793946949767     

 *******************************************************************************
 ENSEMBLE TYPE                =                                              NVE
 STEP NUMBER                  =                                               20
 TIME [fs]                    =                                         2.000000
 CONSERVED QUANTITY [hartree] =                               0.485284180309E+01

                                              INSTANTANEOUS             AVERAGES
 CPU TIME [s]                 =                        0.07                 3.37
 ENERGY DRIFT PER ATOM [K]    =         -0.927889114443E-02  -0.323498614981E-01
 POTENTIAL ENERGY[hartree]    =          0.233830571787E+01   0.229528834023E+01
 KINETIC ENERGY [hartree]     =          0.251453608521E+01   0.255748659793E+01
 TEMPERATURE [K]              =                     588.822              598.880
 *******************************************************************************

 FOBSH| *** OFF-DIAGONAL GRADIENT CALCULATION
 FOBSH| Put former active state           1 in new active state           1
 FOBSH| ACTIVE STATE =            1

 ENERGY| Total FORCE_EVAL ( MIXED ) energy (a.u.):             2.359368760066638

 FOBSH| CASE1: no hop and no trivial crossing
 ENTER integrator.F
 STEP NUMBER                  =           21
 CPU TIME [s]                 =    7.4342191219329834E-002   3.2175204802437549     

 *******************************************************************************
 ENSEMBLE TYPE                =                                              NVE
 STEP NUMBER                  =                                               21
 TIME [fs]                    =                                         2.100000
 CONSERVED QUANTITY [hartree] =                               0.485286296814E+01

                                              INSTANTANEOUS             AVERAGES
 CPU TIME [s]                 =                        0.07                 3.22
 ENERGY DRIFT PER ATOM [K]    =         -0.185290636743E-02  -0.308976255395E-01
 POTENTIAL ENERGY[hartree]    =          0.235936876007E+01   0.229833978879E+01
 KINETIC ENERGY [hartree]     =          0.249349420807E+01   0.255443934127E+01
 TEMPERATURE [K]              =                     583.895              598.166
 *******************************************************************************

 FOBSH| *** OFF-DIAGONAL GRADIENT CALCULATION
 FOBSH| Put former active state           1 in new active state           1
 FOBSH| ACTIVE STATE =            1

 ENERGY| Total FORCE_EVAL ( MIXED ) energy (a.u.):             2.381484144747390

 FOBSH| CASE1: no hop and no trivial crossing
 ENTER integrator.F
 STEP NUMBER                  =           22
 CPU TIME [s]                 =    7.4244330637156963E-002   3.0746442916252734     

 *******************************************************************************
 ENSEMBLE TYPE                =                                              NVE
 STEP NUMBER                  =                                               22
 TIME [fs]                    =                                         2.200000
 CONSERVED QUANTITY [hartree] =                               0.485288502920E+01

                                              INSTANTANEOUS             AVERAGES
 CPU TIME [s]                 =                        0.07                 3.07
 ENERGY DRIFT PER ATOM [K]    =          0.588745383571E-02  -0.292255764770E-01
 POTENTIAL ENERGY[hartree]    =          0.238148414475E+01   0.230211907770E+01
 KINETIC ENERGY [hartree]     =          0.247140088445E+01   0.255066486596E+01
 TEMPERATURE [K]              =                     578.721              597.282
 *******************************************************************************

 FOBSH| *** OFF-DIAGONAL GRADIENT CALCULATION
 FOBSH| Put former active state           1 in new active state           1
 FOBSH| ACTIVE STATE =            1

 ENERGY| Total FORCE_EVAL ( MIXED ) energy (a.u.):             2.404295427517062

 FOBSH| CASE1: no hop and no trivial crossing
 ENTER integrator.F
 STEP NUMBER                  =           23
 CPU TIME [s]                 =    7.4490169994533062E-002   2.9442028080761107     

 *******************************************************************************
 ENSEMBLE TYPE                =                                              NVE
 STEP NUMBER                  =                                               23
 TIME [fs]                    =                                         2.300000
 CONSERVED QUANTITY [hartree] =                               0.485290770025E+01

                                              INSTANTANEOUS             AVERAGES
 CPU TIME [s]                 =                        0.07                 2.94
 ENERGY DRIFT PER ATOM [K]    =          0.138418361343E-01  -0.273530802765E-01
 POTENTIAL ENERGY[hartree]    =          0.240429542752E+01   0.230656152769E+01
 KINETIC ENERGY [hartree]     =          0.244861227274E+01   0.254622779669E+01
 TEMPERATURE [K]              =                     573.385              596.243
 *******************************************************************************

 FOBSH| *** OFF-DIAGONAL GRADIENT CALCULATION
 FOBSH| Put former active state           1 in new active state           1
 FOBSH| ACTIVE STATE =            1

 ENERGY| Total FORCE_EVAL ( MIXED ) energy (a.u.):             2.427436565887532

 FOBSH| CASE1: no hop and no trivial crossing
 ENTER integrator.F
 STEP NUMBER                  =           24
 CPU TIME [s]                 =    7.4396769050508738E-002   2.8246275564500438     

 *******************************************************************************
 ENSEMBLE TYPE                =                                              NVE
 STEP NUMBER                  =                                               24
 TIME [fs]                    =                                         2.400000
 CONSERVED QUANTITY [hartree] =                               0.485293064961E+01

                                              INSTANTANEOUS             AVERAGES
 CPU TIME [s]                 =                        0.07                 2.82
 ENERGY DRIFT PER ATOM [K]    =          0.218938649158E-01  -0.253011242268E-01
 POTENTIAL ENERGY[hartree]    =          0.242743656589E+01   0.231159798761E+01
 KINETIC ENERGY [hartree]     =          0.242549408372E+01   0.254119722532E+01
 TEMPERATURE [K]              =                     567.971              595.065
 *******************************************************************************

 FOBSH| *** OFF-DIAGONAL GRADIENT CALCULATION
 FOBSH| Put former active state           1 in new active state           1
 FOBSH| ACTIVE STATE =            1

 ENERGY| Total FORCE_EVAL ( MIXED ) energy (a.u.):             2.450536941453010

 FOBSH| CASE1: no hop and no trivial crossing
 ENTER integrator.F
 STEP NUMBER                  =           25
 CPU TIME [s]                 =    7.4613843113183975E-002   2.7146270079165697     

 *******************************************************************************
 ENSEMBLE TYPE                =                                              NVE
 STEP NUMBER                  =                                               25
 TIME [fs]                    =                                         2.500000
 CONSERVED QUANTITY [hartree] =                               0.485295356463E+01

                                              INSTANTANEOUS             AVERAGES
 CPU TIME [s]                 =                        0.07                 2.71
 ENERGY DRIFT PER ATOM [K]    =          0.299338432479E-01  -0.230917255278E-01
 POTENTIAL ENERGY[hartree]    =          0.245053694145E+01   0.231715554577E+01
 KINETIC ENERGY [hartree]     =          0.240241662317E+01   0.253564600123E+01
 TEMPERATURE [K]              =                     562.567              593.765
 *******************************************************************************

 FOBSH| *** OFF-DIAGONAL GRADIENT CALCULATION
 FOBSH| Put former active state           1 in new active state           1
 FOBSH| ACTIVE STATE =            1

 ENERGY| Total FORCE_EVAL ( MIXED ) energy (a.u.):             2.473226417935518

 FOBSH| CASE1: no hop and no trivial crossing
 ENTER integrator.F
 STEP NUMBER                  =           26
 CPU TIME [s]                 =    7.4192645959556103E-002   2.6130718401489923     

 *******************************************************************************
 ENSEMBLE TYPE                =                                              NVE
 STEP NUMBER                  =                                               26
 TIME [fs]                    =                                         2.600000
 CONSERVED QUANTITY [hartree] =                               0.485297613065E+01

                                              INSTANTANEOUS             AVERAGES
 CPU TIME [s]                 =                        0.07                 2.61
 ENERGY DRIFT PER ATOM [K]    =          0.378513744086E-01  -0.207477601457E-01
 POTENTIAL ENERGY[hartree]    =          0.247322641794E+01   0.232315827162E+01
 KINETIC ENERGY [hartree]     =          0.237974971271E+01   0.252964999013E+01
 TEMPERATURE [K]              =                     557.260              592.361
 *******************************************************************************

 FOBSH| *** OFF-DIAGONAL GRADIENT CALCULATION
 FOBSH| Put former active state           1 in new active state           1
 FOBSH| ACTIVE STATE =            1

 ENERGY| Total FORCE_EVAL ( MIXED ) energy (a.u.):             2.495140348201335

 FOBSH| CASE1: no hop and no trivial crossing
 ENTER integrator.F
 STEP NUMBER                  =           27
 CPU TIME [s]                 =    7.4358133133500814E-002   2.5190454065558257     

 *******************************************************************************
 ENSEMBLE TYPE                =                                              NVE
 STEP NUMBER                  =                                               27
 TIME [fs]                    =                                         2.700000
 CONSERVED QUANTITY [hartree] =                               0.485299805517E+01

                                              INSTANTANEOUS             AVERAGES
 CPU TIME [s]                 =                        0.07                 2.52
 ENERGY DRIFT PER ATOM [K]    =          0.455438290829E-01  -0.182925161002E-01
 POTENTIAL ENERGY[hartree]    =          0.249514034820E+01   0.232952797816E+01
 KINETIC ENERGY [hartree]     =          0.235785770697E+01   0.252328731298E+01
 TEMPERATURE [K]              =                     552.133              590.871
 *******************************************************************************

 FOBSH| *** OFF-DIAGONAL GRADIENT CALCULATION
 FOBSH| Put former active state           1 in new active state           1
 FOBSH| ACTIVE STATE =            1

 ENERGY| Total FORCE_EVAL ( MIXED ) energy (a.u.):             2.515924393661055

 FOBSH| CASE1: no hop and no trivial crossing
 ENTER integrator.F
 STEP NUMBER                  =           28
 CPU TIME [s]                 =    7.4138287920504808E-002   2.4317272951759930     

 *******************************************************************************
 ENSEMBLE TYPE                =                                              NVE
 STEP NUMBER                  =                                               28
 TIME [fs]                    =                                         2.800000
 CONSERVED QUANTITY [hartree] =                               0.485301903786E+01

                                              INSTANTANEOUS             AVERAGES
 CPU TIME [s]                 =                        0.07                 2.43
 ENERGY DRIFT PER ATOM [K]    =          0.529058302783E-01  -0.157497180152E-01
 POTENTIAL ENERGY[hartree]    =          0.251592439366E+01   0.233618499300E+01
 KINETIC ENERGY [hartree]     =          0.233709464420E+01   0.251663757481E+01
 TEMPERATURE [K]              =                     547.271              589.314
 *******************************************************************************

 FOBSH| *** OFF-DIAGONAL GRADIENT CALCULATION
 FOBSH| Put former active state           1 in new active state           1
 FOBSH| ACTIVE STATE =            1

 ENERGY| Total FORCE_EVAL ( MIXED ) energy (a.u.):             2.535239344219815

 FOBSH| CASE1: no hop and no trivial crossing
 ENTER integrator.F
 STEP NUMBER                  =           29
 CPU TIME [s]                 =    7.4491830077022314E-002   2.3504433136208562     

 *******************************************************************************
 ENSEMBLE TYPE                =                                              NVE
 STEP NUMBER                  =                                               29
 TIME [fs]                    =                                         2.900000
 CONSERVED QUANTITY [hartree] =                               0.485303878765E+01

                                              INSTANTANEOUS             AVERAGES
 CPU TIME [s]                 =                        0.07                 2.35
 ENERGY DRIFT PER ATOM [K]    =          0.598352551557E-01  -0.131433396300E-01
 POTENTIAL ENERGY[hartree]    =          0.253523934422E+01   0.234304893614E+01
 KINETIC ENERGY [hartree]     =          0.231779944343E+01   0.250978108752E+01
 TEMPERATURE [K]              =                     542.753              587.709
 *******************************************************************************

 FOBSH| *** OFF-DIAGONAL GRADIENT CALCULATION
 FOBSH| Put former active state           1 in new active state           1
 FOBSH| ACTIVE STATE =            1

 ENERGY| Total FORCE_EVAL ( MIXED ) energy (a.u.):             2.552765739698911

 FOBSH| CASE1: no hop and no trivial crossing
 ENTER integrator.F
 STEP NUMBER                  =           30
 CPU TIME [s]                 =    7.4196896050125360E-002   2.2745684330351650     

 *******************************************************************************
 ENSEMBLE TYPE                =                                              NVE
 STEP NUMBER                  =                                               30
 TIME [fs]                    =                                         3.000000
 CONSERVED QUANTITY [hartree] =                               0.485305703702E+01

                                              INSTANTANEOUS             AVERAGES
 CPU TIME [s]                 =                        0.07                 2.27
 ENERGY DRIFT PER ATOM [K]    =          0.662382425154E-01  -0.104972868918E-01
 POTENTIAL ENERGY[hartree]    =          0.255276573970E+01   0.235003949626E+01
 KINETIC ENERGY [hartree]     =          0.230029129732E+01   0.250279809451E+01
 TEMPERATURE [K]              =                     538.653              586.074
 *******************************************************************************

 FOBSH| *** OFF-DIAGONAL GRADIENT CALCULATION
 FOBSH! Reorgering: for state           5  we stay in with overlap  0.62192138213176262       instead of goind to            6 with overlap -0.77872095133631802     
 FOBSH! Reorgering: for state           6  we stay in with overlap  0.62167783863548964       instead of goind to            5 with overlap  0.78252789848038018     
 FOBSH| New map:            1           2           3           4           0           0           7           8
 FOBSH! New map again:           1           2           3           4           0           0           7           8
 FOBSH| Put former active state           1 in new active state           1
 FOBSH| ACTIVE STATE =            1

 ENERGY| Total FORCE_EVAL ( MIXED ) energy (a.u.):             2.568208163077903

 FOBSH| CASE1: no hop and no trivial crossing
 ENTER integrator.F
 STEP NUMBER                  =           31
 CPU TIME [s]                 =    7.4502586852759123E-002   2.2035985670292808     

 *******************************************************************************
 ENSEMBLE TYPE                =                                              NVE
 STEP NUMBER                  =                                               31
 TIME [fs]                    =                                         3.100000
 CONSERVED QUANTITY [hartree] =                               0.485307352012E+01

                                              INSTANTANEOUS             AVERAGES
 CPU TIME [s]                 =                        0.07                 2.20
 ENERGY DRIFT PER ATOM [K]    =          0.720215127052E-01  -0.783539013064E-02
 POTENTIAL ENERGY[hartree]    =          0.256820816308E+01   0.235707719519E+01
 KINETIC ENERGY [hartree]     =          0.228486535704E+01   0.249576800621E+01
 TEMPERATURE [K]              =                     535.041              584.427
 *******************************************************************************

 FOBSH| *** OFF-DIAGONAL GRADIENT CALCULATION
 FOBSH| New map:            1           2           3           4           0           0           7           8
 FOBSH! New map again:           1           2           3           4           0           0           7           8
 FOBSH| Put former active state           1 in new active state           1
 FOBSH| ACTIVE STATE =            1

 ENERGY| Total FORCE_EVAL ( MIXED ) energy (a.u.):             2.581299377200032

 FOBSH| CASE1: no hop and no trivial crossing
 ENTER integrator.F
 STEP NUMBER                  =           32
 CPU TIME [s]                 =    7.4197111185640097E-002   2.1370547715341672     

 *******************************************************************************
 ENSEMBLE TYPE                =                                              NVE
 STEP NUMBER                  =                                               32
 TIME [fs]                    =                                         3.200000
 CONSERVED QUANTITY [hartree] =                               0.485308802690E+01

                                              INSTANTANEOUS             AVERAGES
 CPU TIME [s]                 =                        0.07                 2.14
 ENERGY DRIFT PER ATOM [K]    =          0.771113739969E-01  -0.518080375165E-02
 POTENTIAL ENERGY[hartree]    =          0.258129937720E+01   0.236408413838E+01
 KINETIC ENERGY [hartree]     =          0.227178864970E+01   0.248876865132E+01
 TEMPERATURE [K]              =                     531.979              582.788
 *******************************************************************************

 FOBSH| *** OFF-DIAGONAL GRADIENT CALCULATION
 FOBSH| Put former active state           1 in new active state           1
 FOBSH| ACTIVE STATE =            1

 ENERGY| Total FORCE_EVAL ( MIXED ) energy (a.u.):             2.591803920205192

 FOBSH| CASE1: no hop and no trivial crossing
 ENTER integrator.F
 STEP NUMBER                  =           33
 CPU TIME [s]                 =    7.4583564884960651E-002   2.0745556440599491     

 *******************************************************************************
 ENSEMBLE TYPE                =                                              NVE
 STEP NUMBER                  =                                               33
 TIME [fs]                    =                                         3.300000
 CONSERVED QUANTITY [hartree] =                               0.485310035197E+01

                                              INSTANTANEOUS             AVERAGES
 CPU TIME [s]                 =                        0.07                 2.07
 ENERGY DRIFT PER ATOM [K]    =          0.814357570031E-01  -0.255605948636E-02
 POTENTIAL ENERGY[hartree]    =          0.259180392021E+01   0.237098473783E+01
 KINETIC ENERGY [hartree]     =          0.226129643177E+01   0.248187555375E+01
 TEMPERATURE [K]              =                     529.522              581.174
 *******************************************************************************

 FOBSH| *** OFF-DIAGONAL GRADIENT CALCULATION
 FOBSH| Put former active state           1 in new active state           1
 FOBSH| ACTIVE STATE =            1

 ENERGY| Total FORCE_EVAL ( MIXED ) energy (a.u.):             2.599521322313293

 FOBSH| CASE1: no hop and no trivial crossing
 ENTER integrator.F
 STEP NUMBER                  =           34
 CPU TIME [s]                 =    7.4240513145923615E-002   2.0157228460918897     

 *******************************************************************************
 ENSEMBLE TYPE                =                                              NVE
 STEP NUMBER                  =                                               34
 TIME [fs]                    =                                         3.400000
 CONSERVED QUANTITY [hartree] =                               0.485311031612E+01

                                              INSTANTANEOUS             AVERAGES
 CPU TIME [s]                 =                        0.07                 2.02
 ENERGY DRIFT PER ATOM [K]    =          0.849317867783E-01   0.171124626045E-04
 POTENTIAL ENERGY[hartree]    =          0.259952132231E+01   0.237770640208E+01
 KINETIC ENERGY [hartree]     =          0.225358899381E+01   0.247516124317E+01
 TEMPERATURE [K]              =                     527.717              579.602
 *******************************************************************************

 FOBSH| *** OFF-DIAGONAL GRADIENT CALCULATION
 FOBSH| Put former active state           1 in new active state           1
 FOBSH| ACTIVE STATE =            1

 ENERGY| Total FORCE_EVAL ( MIXED ) energy (a.u.):             2.604288909635652

 FOBSH| CASE1: no hop and no trivial crossing
 ENTER integrator.F
 STEP NUMBER                  =           35
 CPU TIME [s]                 =    7.3973872698843479E-002   1.9602443039949455     

 *******************************************************************************
 ENSEMBLE TYPE                =                                              NVE
 STEP NUMBER                  =                                               35
 TIME [fs]                    =                                         3.500000
 CONSERVED QUANTITY [hartree] =                               0.485311777989E+01

                                              INSTANTANEOUS             AVERAGES
 CPU TIME [s]                 =                        0.07                 1.96
 ENERGY DRIFT PER ATOM [K]    =          0.875505302718E-01   0.251806725715E-02
 POTENTIAL ENERGY[hartree]    =          0.260428890964E+01   0.238418018801E+01
 KINETIC ENERGY [hartree]     =          0.224882887026E+01   0.246869460394E+01
 TEMPERATURE [K]              =                     526.602              578.088
 *******************************************************************************

 FOBSH| *** OFF-DIAGONAL GRADIENT CALCULATION
 FOBSH| Put former active state           1 in new active state           1
 FOBSH| ACTIVE STATE =            1

 ENERGY| Total FORCE_EVAL ( MIXED ) energy (a.u.):             2.605984083107685

 FOBSH| CASE1: no hop and no trivial crossing
 ENTER integrator.F
 STEP NUMBER                  =           36
 CPU TIME [s]                 =    7.4203567113727331E-002   1.9078542835260226     

 *******************************************************************************
 ENSEMBLE TYPE                =                                              NVE
 STEP NUMBER                  =                                               36
 TIME [fs]                    =                                         3.600000
 CONSERVED QUANTITY [hartree] =                               0.485312263091E+01

                                              INSTANTANEOUS             AVERAGES
 CPU TIME [s]                 =                        0.07                 1.91
 ENERGY DRIFT PER ATOM [K]    =          0.892525622205E-01   0.492735878391E-02
 POTENTIAL ENERGY[hartree]    =          0.260598408311E+01   0.239034140732E+01
 KINETIC ENERGY [hartree]     =          0.224713854781E+01   0.246254026905E+01
 TEMPERATURE [K]              =                     526.206              576.646
 *******************************************************************************

 FOBSH| *** OFF-DIAGONAL GRADIENT CALCULATION
 FOBSH| Put former active state           1 in new active state           1
 FOBSH| ACTIVE STATE =            1

 ENERGY| Total FORCE_EVAL ( MIXED ) energy (a.u.):             2.604526042107630

 FOBSH| CASE1: no hop and no trivial crossing
 ENTER integrator.F
 STEP NUMBER                  =           37
 CPU TIME [s]                 =    7.4244907125830650E-002   1.8582972733530443     

 *******************************************************************************
 ENSEMBLE TYPE                =                                              NVE
 STEP NUMBER                  =                                               37
 TIME [fs]                    =                                         3.700000
 CONSERVED QUANTITY [hartree] =                               0.485312478797E+01

                                              INSTANTANEOUS             AVERAGES
 CPU TIME [s]                 =                        0.07                 1.86
 ENERGY DRIFT PER ATOM [K]    =          0.900093899381E-01   0.722687313943E-02
 POTENTIAL ENERGY[hartree]    =          0.260452604211E+01   0.239613018123E+01
 KINETIC ENERGY [hartree]     =          0.224859874587E+01   0.245675806572E+01
 TEMPERATURE [K]              =                     526.548              575.292
 *******************************************************************************

 FOBSH| *** OFF-DIAGONAL GRADIENT CALCULATION
 FOBSH| Put former active state           1 in new active state           1
 FOBSH| ACTIVE STATE =            1

 ENERGY| Total FORCE_EVAL ( MIXED ) energy (a.u.):             2.599877017433931

 FOBSH| CASE1: no hop and no trivial crossing
 ENTER integrator.F
 STEP NUMBER                  =           38
 CPU TIME [s]                 =    7.3878997005522251E-002   1.8113388976596883     

 *******************************************************************************
 ENSEMBLE TYPE                =                                              NVE
 STEP NUMBER                  =                                               38
 TIME [fs]                    =                                         3.800000
 CONSERVED QUANTITY [hartree] =                               0.485312424235E+01

                                              INSTANTANEOUS             AVERAGES
 CPU TIME [s]                 =                        0.07                 1.81
 ENERGY DRIFT PER ATOM [K]    =          0.898179526843E-01   0.940032260114E-02
 POTENTIAL ENERGY[hartree]    =          0.259987701743E+01   0.240149194008E+01
 KINETIC ENERGY [hartree]     =          0.225324722492E+01   0.245140251728E+01
 TEMPERATURE [K]              =                     527.637              574.038
 *******************************************************************************

 FOBSH| *** OFF-DIAGONAL GRADIENT CALCULATION
 FOBSH| Put former active state           1 in new active state           1
 FOBSH| ACTIVE STATE =            1

 ENERGY| Total FORCE_EVAL ( MIXED ) energy (a.u.):             2.592042847363110

 FOBSH| CASE1: no hop and no trivial crossing
 ENTER integrator.F
 STEP NUMBER                  =           39
 CPU TIME [s]                 =    7.4433518107980490E-002   1.7668028622865677     

 *******************************************************************************
 ENSEMBLE TYPE                =                                              NVE
 STEP NUMBER                  =                                               39
 TIME [fs]                    =                                         3.900000
 CONSERVED QUANTITY [hartree] =                               0.485312096706E+01

                                              INSTANTANEOUS             AVERAGES
 CPU TIME [s]                 =                        0.07                 1.77
 ENERGY DRIFT PER ATOM [K]    =          0.886687802574E-01   0.114328471564E-01
 POTENTIAL ENERGY[hartree]    =          0.259204284736E+01   0.240637786078E+01
 KINETIC ENERGY [hartree]     =          0.226107811969E+01   0.244652240452E+01
 TEMPERATURE [K]              =                     529.471              572.896
 *******************************************************************************

 FOBSH| *** OFF-DIAGONAL GRADIENT CALCULATION
 FOBSH| Put former active state           1 in new active state           1
 FOBSH| ACTIVE STATE =            1

 ENERGY| Total FORCE_EVAL ( MIXED ) energy (a.u.):             2.581073114916700

 FOBSH| CASE1: no hop and no trivial crossing
 ENTER integrator.F
 STEP NUMBER                  =           40
 CPU TIME [s]                 =    7.4024434667080641E-002   1.7244834015960806     

 *******************************************************************************
 ENSEMBLE TYPE                =                                              NVE
 STEP NUMBER                  =                                               40
 TIME [fs]                    =                                         4.000000
 CONSERVED QUANTITY [hartree] =                               0.485311500137E+01

                                              INSTANTANEOUS             AVERAGES
 CPU TIME [s]                 =                        0.07                 1.72
 ENERGY DRIFT PER ATOM [K]    =          0.865756557145E-01   0.133114173704E-01
 POTENTIAL ENERGY[hartree]    =          0.258107311492E+01   0.241074524213E+01
 KINETIC ENERGY [hartree]     =          0.227204188645E+01   0.244216039157E+01
 TEMPERATURE [K]              =                     532.038              571.874
 *******************************************************************************

 FOBSH| *** OFF-DIAGONAL GRADIENT CALCULATION
 FOBSH| Put former active state           1 in new active state           1
 FOBSH| ACTIVE STATE =            1

 ENERGY| Total FORCE_EVAL ( MIXED ) energy (a.u.):             2.567060599457168

 FOBSH| CASE1: no hop and no trivial crossing
 ENTER integrator.F
 STEP NUMBER                  =           41
 CPU TIME [s]                 =    7.4316654354333878E-002   1.6842354321511599     

 *******************************************************************************
 ENSEMBLE TYPE                =                                              NVE
 STEP NUMBER                  =                                               41
 TIME [fs]                    =                                         4.100000
 CONSERVED QUANTITY [hartree] =                               0.485310641169E+01

                                              INSTANTANEOUS             AVERAGES
 CPU TIME [s]                 =                        0.07                 1.68
 ENERGY DRIFT PER ATOM [K]    =          0.835618739136E-01   0.150248431397E-01
 POTENTIAL ENERGY[hartree]    =          0.256706059946E+01   0.241455781182E+01
 KINETIC ENERGY [hartree]     =          0.228604581223E+01   0.243835271890E+01
 TEMPERATURE [K]              =                     535.317              570.983
 *******************************************************************************

 FOBSH| *** OFF-DIAGONAL GRADIENT CALCULATION
 FOBSH| Put former active state           1 in new active state           1
 FOBSH| ACTIVE STATE =            1

 ENERGY| Total FORCE_EVAL ( MIXED ) energy (a.u.):             2.550140235463744

 FOBSH| CASE1: no hop and no trivial crossing
 ENTER integrator.F
 STEP NUMBER                  =           42
 CPU TIME [s]                 =    7.4156138580292463E-002   1.6459002108756629     

 *******************************************************************************
 ENSEMBLE TYPE                =                                              NVE
 STEP NUMBER                  =                                               42
 TIME [fs]                    =                                         4.200000
 CONSERVED QUANTITY [hartree] =                               0.485309529610E+01

                                              INSTANTANEOUS             AVERAGES
 CPU TIME [s]                 =                        0.07                 1.65
 ENERGY DRIFT PER ATOM [K]    =          0.796618514207E-01   0.165638195274E-01
 POTENTIAL ENERGY[hartree]    =          0.255014023546E+01   0.241778596477E+01
 KINETIC ENERGY [hartree]     =          0.230295506064E+01   0.243512896513E+01
 TEMPERATURE [K]              =                     539.277              570.228
 *******************************************************************************

 FOBSH| *** OFF-DIAGONAL GRADIENT CALCULATION
 FOBSH| Reordering: for state           3 old index was           4 with overlap -0.99963945143929966      and former  -1.5441492205954333E-002
 FOBSH| Reordering: for state           4 old index was           3 with overlap  0.99985289774845154      and former  -1.5417552434752450E-002
 FOBSH| New map:            1           2           4           3           5           6           7           8
 FOBSH| Put former active state           1 in new active state           1
 FOBSH| ACTIVE STATE =            1

 ENERGY| Total FORCE_EVAL ( MIXED ) energy (a.u.):             2.530487500767115

 FOBSH| CASE1: no hop and no trivial crossing
 ENTER integrator.F
 STEP NUMBER                  =           43
 CPU TIME [s]                 =    7.4446890968829393E-002   1.6093547848313181     

 *******************************************************************************
 ENSEMBLE TYPE                =                                              NVE
 STEP NUMBER                  =                                               43
 TIME [fs]                    =                                         4.300000
 CONSERVED QUANTITY [hartree] =                               0.485308179669E+01

                                              INSTANTANEOUS             AVERAGES
 CPU TIME [s]                 =                        0.07                 1.61
 ENERGY DRIFT PER ATOM [K]    =          0.749254391230E-01   0.179210664947E-01
 POTENTIAL ENERGY[hartree]    =          0.253048750077E+01   0.242040693072E+01
 KINETIC ENERGY [hartree]     =          0.232259429593E+01   0.243251187980E+01
 TEMPERATURE [K]              =                     543.876              569.615
 *******************************************************************************

 FOBSH| *** OFF-DIAGONAL GRADIENT CALCULATION
 FOBSH| Put former active state           1 in new active state           1
 FOBSH| ACTIVE STATE =            1

 ENERGY| Total FORCE_EVAL ( MIXED ) energy (a.u.):             2.508316165752289

 FOBSH| CASE1: no hop and no trivial crossing
 ENTER integrator.F
 STEP NUMBER                  =           44
 CPU TIME [s]                 =    7.3979011271148920E-002   1.5744598808867687     

 *******************************************************************************
 ENSEMBLE TYPE                =                                              NVE
 STEP NUMBER                  =                                               44
 TIME [fs]                    =                                         4.400000
 CONSERVED QUANTITY [hartree] =                               0.485306607421E+01

                                              INSTANTANEOUS             AVERAGES
 CPU TIME [s]                 =                        0.07                 1.57
 ENERGY DRIFT PER ATOM [K]    =          0.694090351272E-01   0.190912476000E-01
 POTENTIAL ENERGY[hartree]    =          0.250831616575E+01   0.242240486788E+01
 KINETIC ENERGY [hartree]     =          0.234474990845E+01   0.243051728954E+01
 TEMPERATURE [K]              =                     549.064              569.148
 *******************************************************************************

 FOBSH| *** OFF-DIAGONAL GRADIENT CALCULATION
 FOBSH| Put former active state           1 in new active state           1
 FOBSH| ACTIVE STATE =            1

 ENERGY| Total FORCE_EVAL ( MIXED ) energy (a.u.):             2.483875642457155

 FOBSH| CASE1: no hop and no trivial crossing
 ENTER integrator.F
 STEP NUMBER                  =           45
 CPU TIME [s]                 =    7.4217034038156271E-002   1.5411211509567997     

 *******************************************************************************
 ENSEMBLE TYPE                =                                              NVE
 STEP NUMBER                  =                                               45
 TIME [fs]                    =                                         4.500000
 CONSERVED QUANTITY [hartree] =                               0.485304833025E+01

                                              INSTANTANEOUS             AVERAGES
 CPU TIME [s]                 =                        0.07                 1.54
 ENERGY DRIFT PER ATOM [K]    =          0.631833774279E-01   0.200710727073E-01
 POTENTIAL ENERGY[hartree]    =          0.248387564246E+01   0.242377088509E+01
 KINETIC ENERGY [hartree]     =          0.236917268779E+01   0.242915407617E+01
 TEMPERATURE [K]              =                     554.783              568.829
 *******************************************************************************

 FOBSH| *** OFF-DIAGONAL GRADIENT CALCULATION
 FOBSH| Put former active state           1 in new active state           1
 FOBSH| ACTIVE STATE =            1

 ENERGY| Total FORCE_EVAL ( MIXED ) energy (a.u.):             2.457447889360240

 FOBSH| CASE1: no hop and no trivial crossing
 ENTER integrator.F
 STEP NUMBER                  =           46
 CPU TIME [s]                 =    7.4046705849468708E-002   1.5092282282370750     

 *******************************************************************************
 ENSEMBLE TYPE                =                                              NVE
 STEP NUMBER                  =                                               46
 TIME [fs]                    =                                         4.600000
 CONSERVED QUANTITY [hartree] =                               0.485302879345E+01

                                              INSTANTANEOUS             AVERAGES
 CPU TIME [s]                 =                        0.07                 1.51
 ENERGY DRIFT PER ATOM [K]    =          0.563286824687E-01   0.208592816151E-01
 POTENTIAL ENERGY[hartree]    =          0.245744788936E+01   0.242450299388E+01
 KINETIC ENERGY [hartree]     =          0.239558090409E+01   0.242842422460E+01
 TEMPERATURE [K]              =                     560.967              568.658
 *******************************************************************************

 FOBSH| *** OFF-DIAGONAL GRADIENT CALCULATION
 FOBSH| Put former active state           1 in new active state           1
 FOBSH| ACTIVE STATE =            1

 ENERGY| Total FORCE_EVAL ( MIXED ) energy (a.u.):             2.429343800479620

 FOBSH| CASE1: no hop and no trivial crossing
 ENTER integrator.F
 STEP NUMBER                  =           47
 CPU TIME [s]                 =    7.4496017303317785E-002   1.4787020109831652     

 *******************************************************************************
 ENSEMBLE TYPE                =                                              NVE
 STEP NUMBER                  =                                               47
 TIME [fs]                    =                                         4.700000
 CONSERVED QUANTITY [hartree] =                               0.485300770274E+01

                                              INSTANTANEOUS             AVERAGES
 CPU TIME [s]                 =                        0.07                 1.48
 ENERGY DRIFT PER ATOM [K]    =          0.489287813859E-01   0.214565050145E-01
 POTENTIAL ENERGY[hartree]    =          0.242934380048E+01   0.242460598977E+01
 KINETIC ENERGY [hartree]     =          0.242366390226E+01   0.242832294115E+01
 TEMPERATURE [K]              =                     567.543              568.634
 *******************************************************************************

 FOBSH| *** OFF-DIAGONAL GRADIENT CALCULATION
 FOBSH| Put former active state           1 in new active state           1
 FOBSH| ACTIVE STATE =            1

 ENERGY| Total FORCE_EVAL ( MIXED ) energy (a.u.):             2.399899266389856

 FOBSH| CASE1: no hop and no trivial crossing
 ENTER integrator.F
 STEP NUMBER                  =           48
 CPU TIME [s]                 =    7.4212095700204372E-002   1.4494418044147701     

 *******************************************************************************
 ENSEMBLE TYPE                =                                              NVE
 STEP NUMBER                  =                                               48
 TIME [fs]                    =                                         4.800000
 CONSERVED QUANTITY [hartree] =                               0.485298533878E+01

                                              INSTANTANEOUS             AVERAGES
 CPU TIME [s]                 =                        0.07                 1.45
 ENERGY DRIFT PER ATOM [K]    =          0.410821456906E-01   0.218653725286E-01
 POTENTIAL ENERGY[hartree]    =          0.239989926639E+01   0.242409126636E+01
 KINETIC ENERGY [hartree]     =          0.245308607239E+01   0.242883883972E+01
 TEMPERATURE [K]              =                     574.433              568.755
 *******************************************************************************

 FOBSH| *** OFF-DIAGONAL GRADIENT CALCULATION
 FOBSH| Put former active state           1 in new active state           1
 FOBSH| ACTIVE STATE =            1

 ENERGY| Total FORCE_EVAL ( MIXED ) energy (a.u.):             2.369470905802185

 FOBSH| CASE1: no hop and no trivial crossing
 ENTER integrator.F
 STEP NUMBER                  =           49
 CPU TIME [s]                 =    7.4525987263768911E-002   1.4213822979423008     

 *******************************************************************************
 ENSEMBLE TYPE                =                                              NVE
 STEP NUMBER                  =                                               49
 TIME [fs]                    =                                         4.900000
 CONSERVED QUANTITY [hartree] =                               0.485296197729E+01

                                              INSTANTANEOUS             AVERAGES
 CPU TIME [s]                 =                        0.07                 1.42
 ENERGY DRIFT PER ATOM [K]    =          0.328855174677E-01   0.220902734457E-01
 POTENTIAL ENERGY[hartree]    =          0.236947090580E+01   0.242297656513E+01
 KINETIC ENERGY [hartree]     =          0.248349107149E+01   0.242995419139E+01
 TEMPERATURE [K]              =                     581.552              569.016
 *******************************************************************************

 FOBSH| *** OFF-DIAGONAL GRADIENT CALCULATION
 FOBSH| New map:            1           2           3           4           5           6           0           0
 FOBSH! New map again:           1           2           3           4           5           6           0           0
 FOBSH| Put former active state           1 in new active state           1
 FOBSH| ACTIVE STATE =            1

 ENERGY| Total FORCE_EVAL ( MIXED ) energy (a.u.):             2.338431524969004

 FOBSH| CASE1: no hop and no trivial crossing
 ENTER integrator.F
 STEP NUMBER                  =           50
 CPU TIME [s]                 =    7.4197217822074890E-002   1.3944385963398964     

 *******************************************************************************
[...]

 *******************************************************************************
 ENSEMBLE TYPE                =                                              NVE
 STEP NUMBER                  =                                              191
 TIME [fs]                    =                                        19.100000
 CONSERVED QUANTITY [hartree] =                               0.485289730222E+01

                                              INSTANTANEOUS             AVERAGES
 CPU TIME [s]                 =                        0.04                 0.41
 ENERGY DRIFT PER ATOM [K]    =          0.101935731847E-01   0.112887200225E-02
 POTENTIAL ENERGY[hartree]    =          0.251497293487E+01   0.238889455071E+01
 KINETIC ENERGY [hartree]     =          0.233792436734E+01   0.246397679971E+01
 TEMPERATURE [K]              =                     547.466              576.983
 *******************************************************************************

 FOBSH| *** OFF-DIAGONAL GRADIENT CALCULATION
 FOBSH| Put former active state           1 in new active state           1
 FOBSH| ACTIVE STATE =            1

 ENERGY| Total FORCE_EVAL ( MIXED ) energy (a.u.):             2.544904265920666

 FOBSH| *** WARNING: Projection to avoid spurious transfer get lambda =    1.0265272182436578      ***
 FOBSH| CASE1: no hop and no trivial crossing
 ENTER integrator.F
 STEP NUMBER                  =          192
 CPU TIME [s]                 =    3.9751811884343624E-002  0.40513886431290347     

 *******************************************************************************
 ENSEMBLE TYPE                =                                              NVE
 STEP NUMBER                  =                                              192
 TIME [fs]                    =                                        19.200000
 CONSERVED QUANTITY [hartree] =                               0.485292111361E+01

                                              INSTANTANEOUS             AVERAGES
 CPU TIME [s]                 =                        0.04                 0.41
 ENERGY DRIFT PER ATOM [K]    =          0.185480554697E-01   0.121959691614E-02
 POTENTIAL ENERGY[hartree]    =          0.254490426592E+01   0.238970710131E+01
 KINETIC ENERGY [hartree]     =          0.230801684769E+01   0.246316450829E+01
 TEMPERATURE [K]              =                     540.462              576.793
 *******************************************************************************

 FOBSH| *** OFF-DIAGONAL GRADIENT CALCULATION
 FOBSH| Put former active state           1 in new active state           1
 FOBSH| ACTIVE STATE =            1

 ENERGY| Total FORCE_EVAL ( MIXED ) energy (a.u.):             2.573965658648144

 FOBSH| *** WARNING: Projection to avoid spurious transfer get lambda =    1.0244007557602863      ***
 FOBSH| CASE1: no hop and no trivial crossing
 ENTER integrator.F
 STEP NUMBER                  =          193
 CPU TIME [s]                 =    3.9894463028758764E-002  0.40324640627516178     

 *******************************************************************************
 ENSEMBLE TYPE                =                                              NVE
 STEP NUMBER                  =                                              193
 TIME [fs]                    =                                        19.300000
 CONSERVED QUANTITY [hartree] =                               0.485294439273E+01

                                              INSTANTANEOUS             AVERAGES
 CPU TIME [s]                 =                        0.04                 0.40
 ENERGY DRIFT PER ATOM [K]    =          0.267157862563E-01   0.135170152412E-02
 POTENTIAL ENERGY[hartree]    =          0.257396565865E+01   0.239066180886E+01
 KINETIC ENERGY [hartree]     =          0.227897873409E+01   0.246221017785E+01
 TEMPERATURE [K]              =                     533.662              576.569
 *******************************************************************************

 FOBSH| *** OFF-DIAGONAL GRADIENT CALCULATION
 FOBSH| Put former active state           1 in new active state           1
 FOBSH| ACTIVE STATE =            1

 ENERGY| Total FORCE_EVAL ( MIXED ) energy (a.u.):             2.601789172957737

 FOBSH| *** WARNING: Projection to avoid spurious transfer get lambda =    1.0223644515551131      ***
 FOBSH| CASE1: no hop and no trivial crossing
 ENTER integrator.F
 STEP NUMBER                  =          194
 CPU TIME [s]                 =    3.9903298951685429E-002  0.40137350366009233     

 *******************************************************************************
 ENSEMBLE TYPE                =                                              NVE
 STEP NUMBER                  =                                              194
 TIME [fs]                    =                                        19.400000
 CONSERVED QUANTITY [hartree] =                               0.485296683089E+01

                                              INSTANTANEOUS             AVERAGES
 CPU TIME [s]                 =                        0.04                 0.40
 ENERGY DRIFT PER ATOM [K]    =          0.345884538980E-01   0.152302498997E-02
 POTENTIAL ENERGY[hartree]    =          0.260178917296E+01   0.239175009424E+01
 KINETIC ENERGY [hartree]     =          0.225117765793E+01   0.246112238136E+01
 TEMPERATURE [K]              =                     527.152              576.314
 *******************************************************************************

 FOBSH| *** OFF-DIAGONAL GRADIENT CALCULATION
 FOBSH| Put former active state           1 in new active state           1
 FOBSH| ACTIVE STATE =            1

 ENERGY| Total FORCE_EVAL ( MIXED ) energy (a.u.):             2.628020066610987

 FOBSH| *** WARNING: Projection to avoid spurious transfer get lambda =    1.0204215979237203      ***
 FOBSH| CASE1: no hop and no trivial crossing
 ENTER integrator.F
 STEP NUMBER                  =          195
 CPU TIME [s]                 =    3.9825479034334421E-002  0.39951941122611406     

 *******************************************************************************
 ENSEMBLE TYPE                =                                              NVE
 STEP NUMBER                  =                                              195
 TIME [fs]                    =                                        19.500000
 CONSERVED QUANTITY [hartree] =                               0.485298816015E+01

                                              INSTANTANEOUS             AVERAGES
 CPU TIME [s]                 =                        0.04                 0.40
 ENERGY DRIFT PER ATOM [K]    =          0.420720536940E-01   0.173096872691E-02
 POTENTIAL ENERGY[hartree]    =          0.262802006661E+01   0.239296173513E+01
 KINETIC ENERGY [hartree]     =          0.222496809354E+01   0.245991133373E+01
 TEMPERATURE [K]              =                     521.015              576.031
 *******************************************************************************

 FOBSH| *** OFF-DIAGONAL GRADIENT CALCULATION
 FOBSH| Put former active state           1 in new active state           1
 FOBSH| ACTIVE STATE =            1

 ENERGY| Total FORCE_EVAL ( MIXED ) energy (a.u.):             2.652321216333115

 FOBSH| *** WARNING: Projection to avoid spurious transfer get lambda =    1.0185740919360236      ***
 FOBSH| CASE1: no hop and no trivial crossing
 ENTER integrator.F
 STEP NUMBER                  =          196
 CPU TIME [s]                 =    4.0117277763783932E-002  0.39768572687171438     

 *******************************************************************************
 ENSEMBLE TYPE                =                                              NVE
 STEP NUMBER                  =                                              196
 TIME [fs]                    =                                        19.600000
 CONSERVED QUANTITY [hartree] =                               0.485300810849E+01

                                              INSTANTANEOUS             AVERAGES
 CPU TIME [s]                 =                        0.04                 0.40
 ENERGY DRIFT PER ATOM [K]    =          0.490711433289E-01   0.197250022998E-02
 POTENTIAL ENERGY[hartree]    =          0.265232121633E+01   0.239428499779E+01
 KINETIC ENERGY [hartree]     =          0.220068689216E+01   0.245858876005E+01
 TEMPERATURE [K]              =                     515.329              575.721
 *******************************************************************************

 FOBSH| *** OFF-DIAGONAL GRADIENT CALCULATION
 FOBSH| Put former active state           1 in new active state           1
 FOBSH| ACTIVE STATE =            1

 ENERGY| Total FORCE_EVAL ( MIXED ) energy (a.u.):             2.674377400602364

 FOBSH| *** WARNING: Projection to avoid spurious transfer get lambda =    1.0168236989571857      ***
 FOBSH| CASE1: no hop and no trivial crossing
 ENTER integrator.F
 STEP NUMBER                  =          197
 CPU TIME [s]                 =    3.9925559889525175E-002  0.39586968541495193     

 *******************************************************************************
 ENSEMBLE TYPE                =                                              NVE
 STEP NUMBER                  =                                              197
 TIME [fs]                    =                                        19.700000
 CONSERVED QUANTITY [hartree] =                               0.485302642666E+01

                                              INSTANTANEOUS             AVERAGES
 CPU TIME [s]                 =                        0.04                 0.40
 ENERGY DRIFT PER ATOM [K]    =          0.554982694327E-01   0.224420464218E-02
 POTENTIAL ENERGY[hartree]    =          0.267437740060E+01   0.239570678663E+01
 KINETIC ENERGY [hartree]     =          0.217864902606E+01   0.245716774617E+01
 TEMPERATURE [K]              =                     510.168              575.388
 *******************************************************************************

 FOBSH| *** OFF-DIAGONAL GRADIENT CALCULATION
 FOBSH| Put former active state           1 in new active state           1
 FOBSH| ACTIVE STATE =            1

 ENERGY| Total FORCE_EVAL ( MIXED ) energy (a.u.):             2.693899281795142

 FOBSH| *** WARNING: Projection to avoid spurious transfer get lambda =    1.0151709329951177      ***
 FOBSH| CASE1: no hop and no trivial crossing
 ENTER integrator.F
 STEP NUMBER                  =          198
 CPU TIME [s]                 =    3.9763015229254961E-002  0.39407116687866056     

 *******************************************************************************
 ENSEMBLE TYPE                =                                              NVE
 STEP NUMBER                  =                                              198
 TIME [fs]                    =                                        19.800000
 CONSERVED QUANTITY [hartree] =                               0.485304288524E+01

                                              INSTANTANEOUS             AVERAGES
 CPU TIME [s]                 =                        0.04                 0.39
 ENERGY DRIFT PER ATOM [K]    =          0.612729373670E-01   0.254232955493E-02
 POTENTIAL ENERGY[hartree]    =          0.269389928180E+01   0.239721280934E+01
 KINETIC ENERGY [hartree]     =          0.215914360344E+01   0.245566257373E+01
 TEMPERATURE [K]              =                     505.601              575.036
 *******************************************************************************

 FOBSH| *** OFF-DIAGONAL GRADIENT CALCULATION
 FOBSH! Reorgering: for state           5  we stay in with overlap  0.45007746529856257       instead of goind to            6 with overlap -0.88761559338140261     
 FOBSH! Reorgering: for state           6  we stay in with overlap -0.44983953472506988       instead of goind to            5 with overlap -0.89262657749581975     
 FOBSH| New map:            1           2           3           4           0           0           7           8
 FOBSH! New map again:           1           2           3           4           0           0           7           8
 FOBSH| Put former active state           1 in new active state           1
 FOBSH| ACTIVE STATE =            1

 ENERGY| Total FORCE_EVAL ( MIXED ) energy (a.u.):             2.710627089583657

 FOBSH| *** WARNING: Projection to avoid spurious transfer get lambda =    1.0136162015250365      ***
 FOBSH| CASE1: no hop and no trivial crossing
 ENTER integrator.F
 STEP NUMBER                  =          199
 CPU TIME [s]                 =    3.9935761131346226E-002  0.39229159197540775     

 *******************************************************************************
 ENSEMBLE TYPE                =                                              NVE
 STEP NUMBER                  =                                              199
 TIME [fs]                    =                                        19.900000
 CONSERVED QUANTITY [hartree] =                               0.485305727686E+01

                                              INSTANTANEOUS             AVERAGES
 CPU TIME [s]                 =                        0.04                 0.39
 ENERGY DRIFT PER ATOM [K]    =          0.663223911553E-01   0.286283237704E-02
 POTENTIAL ENERGY[hartree]    =          0.271062708958E+01   0.239878775547E+01
 KINETIC ENERGY [hartree]     =          0.214243018727E+01   0.245408854164E+01
 TEMPERATURE [K]              =                     501.687              574.667
 *******************************************************************************

 FOBSH| *** OFF-DIAGONAL GRADIENT CALCULATION
 FOBSH| Put former active state           1 in new active state           1
 FOBSH| ACTIVE STATE =            1

 ENERGY| Total FORCE_EVAL ( MIXED ) energy (a.u.):             2.724333893550027

 FOBSH| *** WARNING: Projection to avoid spurious transfer get lambda =    1.0121593256105657      ***
 FOBSH| CASE1: no hop and no trivial crossing
 ENTER integrator.F
 STEP NUMBER                  =          200
 CPU TIME [s]                 =    3.9842019788920879E-002  0.39052934411447532     

 *******************************************************************************
 ENSEMBLE TYPE                =                                              NVE
 STEP NUMBER                  =                                              200
 TIME [fs]                    =                                        20.000000
 CONSERVED QUANTITY [hartree] =                               0.485306942011E+01

                                              INSTANTANEOUS             AVERAGES
 CPU TIME [s]                 =                        0.04                 0.39
 ENERGY DRIFT PER ATOM [K]    =          0.705829809072E-01   0.320143311969E-02
 POTENTIAL ENERGY[hartree]    =          0.272433389355E+01   0.240041548616E+01
 KINETIC ENERGY [hartree]     =          0.212873552656E+01   0.245246177656E+01
 TEMPERATURE [K]              =                     498.480              574.286
 *******************************************************************************


 -------------------------------------------------------------------------------
 -                                                                             -
 -                                DBCSR STATISTICS                             -
 -                                                                             -
 -------------------------------------------------------------------------------
 COUNTER                                    TOTAL       BLAS       SMM       ACC
 flops total                                    0       0.0%      0.0%      0.0%
 flops max/rank                                 0       0.0%      0.0%      0.0%
 matmuls inhomo. stacks                         0       0.0%      0.0%      0.0%
 matmuls total                                  0       0.0%      0.0%      0.0%
 number of processed stacks                     0       0.0%      0.0%      0.0%
 average stack size                                     0.0       0.0       0.0
 marketing flops                     0.000000E+00
 -------------------------------------------------------------------------------

 MEMORY| Estimated peak process memory [MiB]                                 122

 -------------------------------------------------------------------------------
 -                                                                             -
 -                           R E F E R E N C E S                               -
 -                                                                             -
 -------------------------------------------------------------------------------
 
 CP2K version 4.0 (Development Version), the CP2K developers group (2015).
 CP2K is freely available from https://www.cp2k.org/ .

 Borstnik, U; VandeVondele, J; Weber, V; Hutter, J. 
 PARALLEL COMPUTING, 40 (5-6), 47-58 (2014). 
 Sparse matrix multiplication: The distributed block-compressed sparse
 row library.
 http://dx.doi.org/10.1016/j.parco.2014.03.012


 Hutter, J; Iannuzzi, M; Schiffmann, F; VandeVondele, J. 
 WILEY INTERDISCIPLINARY REVIEWS-COMPUTATIONAL MOLECULAR SCIENCE, 4 (1), 15-25 (2014). 
 CP2K: atomistic simulations of condensed matter systems.
 http://dx.doi.org/10.1002/wcms.1159


 Frigo, M; Johnson, SG. 
 PROCEEDINGS OF THE IEEE, 93 (2), 216-231 (2005). 
 The design and implementation of FFTW3.
 http://dx.doi.org/10.1109/JPROC.2004.840301


 -------------------------------------------------------------------------------
 -                                                                             -
 -                                T I M I N G                                  -
 -                                                                             -
 -------------------------------------------------------------------------------
 SUBROUTINE                       CALLS  ASD         SELF TIME        TOTAL TIME
                                MAXIMUM       AVERAGE  MAXIMUM  AVERAGE  MAXIMUM
 CP2K                                 1  1.0    0.022    0.022   87.400   87.400
 qs_mol_dyn_low                       1  2.0   13.136   13.136   78.137   78.137
 parser_read_line               2346106  3.0   20.837   20.837   57.832   57.832
 parser_read_line_low              2509  4.3   36.976   36.976   36.995   36.995
 velocity_verlet                    200  3.0    8.398    8.398   11.747   11.747
 topology_control                     3  4.0    0.004    0.004    8.597    8.597
 connectivity_control                 3  5.0    0.006    0.006    8.317    8.317
 read_topology_psf                  150  6.0    3.669    3.669    8.288    8.288
 fist_create_force_env                2  2.0    0.000    0.000    6.492    6.492
 fist_init                            2  3.0    0.015    0.015    6.492    6.492
 fist_calc_energy_force             402  4.0    0.014    0.014    3.628    3.628
 mixed_create_force_env               1  2.0    0.000    0.000    2.740    2.740
 mixed_init                           1  3.0    0.000    0.000    2.740    2.740
 force_nonbond                      201  5.0    2.733    2.733    2.733    2.733
 -------------------------------------------------------------------------------

 The number of warnings for this run is : 1
 
 -------------------------------------------------------------------------------
  **** **** ******  **  PROGRAM ENDED AT                 2021-01-14 05:48:41.915
 ***** ** ***  *** **   PROGRAM RAN ON                   bulstake.phys.ucl.ac.uk
 **    ****   ******    PROGRAM RAN BY                                 sgiannini
 ***** **    ** ** **   PROGRAM PROCESS ID                                 12716
  **** **  *******  **  PROGRAM STOPPED IN /scratch/sgiannini/FOB-SH-REGTESTS_/3
                                           2-XXXX_code_extension_V2/run-fssh-BOM
                                           D
