 DBCSR| Multiplication driver                                               XSMM
 DBCSR| Multrec recursion limit                                              512
 DBCSR| Multiplication stack size                                           1000
 DBCSR| Maximum elements for images                                    UNLIMITED
 DBCSR| Randmat seed                                                    12341313
 DBCSR| Multiplication size stacks                                             3


  **** **** ******  **  PROGRAM STARTED AT               2021-02-12 16:43:36.201
 ***** ** ***  *** **   PROGRAM STARTED ON               bulstake.phys.ucl.ac.uk
 **    ****   ******    PROGRAM STARTED BY                             sgiannini
 ***** **    ** ** **   PROGRAM PROCESS ID                                  3533
  **** **  *******  **  PROGRAM STARTED IN /scratch/sgiannini/FOB-SH-REGTESTS_/3
                                           3-XXX_code_extension_V2/run-fssh-MTS1
                                           _RESTART

 CP2K| version string:                    CP2K version 4.0 (Development Version)
 CP2K| source code revision number:                                  git:cfe3005
 CP2K| cp2kflags: libint fftw3 libxc quip smm_dnn smm libxsmm libderiv_max_am1=5
 CP2K|             libint_max_am=6
 CP2K| is freely available from                            https://www.cp2k.org/
 CP2K| Program compiled at                          Fri 12 Feb 16:41:38 GMT 2021
 CP2K| Program compiled on                               bulstake.phys.ucl.ac.uk
 CP2K| Program compiled for                                                local
 CP2K| Data directory path           /scratch/sgiannini/flavoured-cptk/cp2k/data
 CP2K| Input file name                                                   run.inp

 GLOBAL| Force Environment number                                              1
 GLOBAL| Basis set file name                                           POTENTIAL
 GLOBAL| MM Potential file name                                     MM_POTENTIAL
 GLOBAL| Coordinate file name                                       pos-init.xyz
 GLOBAL| Force Environment number                                              2
 GLOBAL| Basis set file name                                           POTENTIAL
 GLOBAL| MM Potential file name                                     MM_POTENTIAL
 GLOBAL| Coordinate file name                                       pos-init.xyz
 GLOBAL| Force Environment number                                              3
 GLOBAL| Basis set file name                                           POTENTIAL
 GLOBAL| MM Potential file name                                     MM_POTENTIAL
 GLOBAL| Coordinate file name                                       pos-init.xyz
 GLOBAL| Method name                                                        CP2K
 GLOBAL| Project name                                                        run
 GLOBAL| Preferred FFT library                                             FFTW3
 GLOBAL| Preferred diagonalization lib.                                       SL
 GLOBAL| Run type                                                             MD
 GLOBAL| All-to-all communication in single precision                          F
 GLOBAL| FFTs using library dependent lengths                                  F
 GLOBAL| Global print level                                                  LOW
 GLOBAL| Total number of message passing processes                             1
 GLOBAL| Number of threads for this process                                    1
 GLOBAL| This output is from process                                           0
 GLOBAL| CPU model name :  Intel(R) Xeon(R) CPU E5-2687W v4 @ 3.00GHz

 MEMORY| system memory details [Kb]
 MEMORY|                        rank 0           min           max       average
 MEMORY| MemTotal             65894336      65894336      65894336      65894336
 MEMORY| MemFree               3335448       3335448       3335448       3335448
 MEMORY| Buffers                  9680          9680          9680          9680
 MEMORY| Cached               50526168      50526168      50526168      50526168
 MEMORY| Slab                  2054100       2054100       2054100       2054100
 MEMORY| SReclaimable          1717764       1717764       1717764       1717764
 MEMORY| MemLikelyFree        55589060      55589060      55589060      55589060

 TOTAL NUMBER OF FORCE EVALS           3
 NOTE:n_subforce_eval           2

 *** WARNING in atoms_input.F:125 :: Overwriting coordinates. Active    ***
 *** coordinates read from &COORD section. Active coordinates READ from ***
 *** &COORD section                                                     ***

 DECOMP =  T
 DECOMP =  T

 MD| Molecular Dynamics Protocol 
 MD| Ensemble Type                                                           NVE
 MD| Number of Time Steps                                                    100
 MD| Time Step [fs]                                                         0.10
 MD| Temperature [K]                                                      400.00
 MD| Temperature tolerance [K]                                              0.00
 MD| Print MD information every                                        1 step(s)
 MD| File type     Print frequency[steps]                             File names
 MD| Coordinates          200                                      run-pos-1.xyz
 MD| Velocities             1                                      run-vel-1.xyz
 MD| Energies               1                                         run-1.ener
 MD| Dump                 100                                      run-1.restart

 ROT| Rotational Analysis Info 
 ROT| Principal axes and moments of inertia in atomic units:
 ROT|                                1                 2                 3
 ROT| EIGENVALUES            0.319389557E+10   0.583947646E+10   0.882236735E+10
 ROT|      X                     0.997646042       0.065840216       0.019168740
 ROT|      Y                     0.065849756      -0.997829540       0.000133778
 ROT|      Z                    -0.019135943      -0.001128794       0.999816254
 ROT| Numer of Rotovibrational vectors:     6

 Calculation of degrees of freedom
                                                      Number of atoms:       900
                                 Number of Intramolecular constraints:         0
                                 Number of Intermolecular constraints:         0
                                  Invariants(translation + rotations):         3
                                                   Degrees of freedom:      2697


 Restraints Information
                                  Number of Intramolecular restraints:         0
                                  Number of Intermolecular restraints:         0

 *** WARNING in motion/thermostat/thermostat_methods.F:280 :: Thermostat ***
 *** for Particles has been defined but the ensemble provided does not   ***
 *** support thermostat for Particles! Ignoring thermostat input.        ***

 ************************** Velocities initialization **************************
 Initial Temperature                                                    507.74 K
 COM velocity:            0.000000000104     -0.000000000034      0.000000000006
 *******************************************************************************

 FIRST CALL: force_env_calc_energy_force
 RESTART_KEY T
 real  0.88474343430000002     
 imag  0.16768427710000000     
 real -0.13748281960000000     
 imag  -6.0082795899999999E-002
 real  -3.7083963999999998E-003
 imag   9.8625459999999998E-004
 real -0.31698741969999999     
 imag -0.25063571890000003     
 real   3.8147900000000001E-005
 imag   4.4146851899999999E-002
 real  -5.9501967000000003E-003
 imag   3.5601889700000000E-002
 real   1.8467010000000001E-003
 imag   2.7140200000000001E-004
 real   5.4840300999999996E-003
 imag  -3.9237229999999998E-004
 CTIN ( 0.88474343430000002     , 0.16768427710000000     ) (-0.13748281960000000     , -6.0082795899999999E-002) ( -3.7083963999999998E-003,  9.8625459999999998E-004) (-0.31698741969999999     ,-0.25063571890000003     ) (  3.8147900000000001E-005,  4.4146851899999999E-002) ( -5.9501967000000003E-003,  3.5601889700000000E-002) (  1.8467010000000001E-003,  2.7140200000000001E-004) (  5.4840300999999996E-003, -3.9237229999999998E-004)
 FOB-SH: ALLOCATION OF S MATRICES
 Lookup table files:
 ../topologies/S_psigma.txt                                                      
 ../topologies/S_ppi.txt                                                         
 ../topologies/S_psigma_carbon_sulfur.dat                                        
 ../topologies/S_ppi_carbon_sulfur.dat                                           
 ../topologies/S_psigma_sulfur_sulfur.dat                                        
 ../topologies/S_ppi_sulfur_sulfur.dat                                           
 C-S psigma nrows     1166666
 C-S ppi nrows     1166666
 S-S psigma nrows     1166666
 S-S ppi nrows     1166666
 FOBSH| ACTIVE STATE =            2

 ENERGY| Total FORCE_EVAL ( MIXED ) energy (a.u.):             2.690243049456257

 STEP NUMBER                  =          100
 CPU TIME [s]                 =    0.0000000000000000        0.0000000000000000     

 MD_ENERGIES| Initialization proceeding


 ******************************** GO CP2K GO! **********************************
 INITIAL POTENTIAL ENERGY[hartree]     =                      0.269024304946E+01
 INITIAL KINETIC ENERGY[hartree]       =                      0.216829551526E+01
 INITIAL TEMPERATURE[K]                =                                 507.744
 INITIAL VOLUME[bohr^3]                =                      0.580604601118E+05
 INITIAL CELL LNTHS[bohr]   =      0.7651501E+02   0.5624770E+02   0.1634991E+02
 INITIAL CELL ANGLS[deg]    =      0.9000000E+02   0.1244000E+03   0.9000000E+02
 ******************************** GO CP2K GO! **********************************
 FOBSH| *** OFF-DIAGONAL GRADIENT CALCULATION
 FOBSH| Put former active state           2 in new active state           2
 RANDOM_NUMBER_HOPPING_PROBA  0.36832894003307903     
 FOBSH| ACTIVE STATE =            2

 ENERGY| Total FORCE_EVAL ( MIXED ) energy (a.u.):             2.669736842075022

 FOBSH| *** WARNING: Projection to avoid spurious transfer get lambda =   0.99842780922114238      ***
 FOBSH| CASE1: no hop and no trivial crossing
 ENTER integrator.F
 STEP NUMBER                  =          101
 CPU TIME [s]                 =    65.375264032743871       0.82496673657183106     

 *******************************************************************************
 ENSEMBLE TYPE                =                                              NVE
 STEP NUMBER                  =                                              101
 TIME [fs]                    =                                        10.100000
 CONSERVED QUANTITY [hartree] =                               0.485852112118E+01

                                              INSTANTANEOUS             AVERAGES
 CPU TIME [s]                 =                       65.38                 0.82
 ENERGY DRIFT PER ATOM [K]    =          0.579531691715E-01   0.107494416904E-01
 POTENTIAL ENERGY[hartree]    =          0.266973684208E+01   0.239836935502E+01
 KINETIC ENERGY [hartree]     =          0.218878427911E+01   0.246001701280E+01
 TEMPERATURE [K]              =                     512.542              576.056
 *******************************************************************************

 FOBSH| *** OFF-DIAGONAL GRADIENT CALCULATION
 FOBSH| Put former active state           2 in new active state           2
 RANDOM_NUMBER_HOPPING_PROBA  0.25812182056003685     
 FOBSH| ACTIVE STATE =            2

 ENERGY| Total FORCE_EVAL ( MIXED ) energy (a.u.):             2.646652987040661

 FOBSH| *** WARNING: Projection to avoid spurious transfer get lambda =   0.99839502683887882      ***
 FOBSH| CASE1: no hop and no trivial crossing
 ENTER integrator.F
 STEP NUMBER                  =          102
 CPU TIME [s]                 =    7.5865861028432846E-002  0.81762261034101336     

 *******************************************************************************
 ENSEMBLE TYPE                =                                              NVE
 STEP NUMBER                  =                                              102
 TIME [fs]                    =                                        10.200000
 CONSERVED QUANTITY [hartree] =                               0.485850182017E+01

                                              INSTANTANEOUS             AVERAGES
 CPU TIME [s]                 =                        0.08                 0.82
 ENERGY DRIFT PER ATOM [K]    =          0.511812005066E-01   0.111458314827E-01
 POTENTIAL ENERGY[hartree]    =          0.264665298704E+01   0.240080350828E+01
 KINETIC ENERGY [hartree]     =          0.221184883313E+01   0.245758399143E+01
 TEMPERATURE [K]              =                     517.943              575.486
 *******************************************************************************

 FOBSH| *** OFF-DIAGONAL GRADIENT CALCULATION
 FOBSH| Put former active state           2 in new active state           2
 RANDOM_NUMBER_HOPPING_PROBA  0.45872223293739944     
 FOBSH| ACTIVE STATE =            2

 ENERGY| Total FORCE_EVAL ( MIXED ) energy (a.u.):             2.621299914845266

 FOBSH| *** WARNING: Projection to avoid spurious transfer get lambda =   0.99836359213080905      ***
 FOBSH| CASE1: no hop and no trivial crossing
 ENTER integrator.F
 STEP NUMBER                  =          103
 CPU TIME [s]                 =    7.5476954691112041E-002  0.81041731271334438     

 *******************************************************************************
 ENSEMBLE TYPE                =                                              NVE
 STEP NUMBER                  =                                              103
 TIME [fs]                    =                                        10.300000
 CONSERVED QUANTITY [hartree] =                               0.485848087532E+01

                                              INSTANTANEOUS             AVERAGES
 CPU TIME [s]                 =                        0.08                 0.81
 ENERGY DRIFT PER ATOM [K]    =          0.438324757526E-01   0.114631775436E-01
 POTENTIAL ENERGY[hartree]    =          0.262129991485E+01   0.240294425009E+01
 KINETIC ENERGY [hartree]     =          0.223718096047E+01   0.245544415618E+01
 TEMPERATURE [K]              =                     523.875              574.985
 *******************************************************************************

 FOBSH| *** OFF-DIAGONAL GRADIENT CALCULATION
 FOBSH| Put former active state           2 in new active state           2
 RANDOM_NUMBER_HOPPING_PROBA  0.66592472524203894     
 FOBSH| ACTIVE STATE =            2

 ENERGY| Total FORCE_EVAL ( MIXED ) energy (a.u.):             2.594011785263607

 FOBSH| *** WARNING: Projection to avoid spurious transfer get lambda =   0.99833361476780058      ***
 FOBSH| CASE1: no hop and no trivial crossing
 ENTER integrator.F
 STEP NUMBER                  =          104
 CPU TIME [s]                 =    7.5425658375024796E-002  0.80335008526778373     

 *******************************************************************************
 ENSEMBLE TYPE                =                                              NVE
 STEP NUMBER                  =                                              104
 TIME [fs]                    =                                        10.400000
 CONSERVED QUANTITY [hartree] =                               0.485845860426E+01

                                              INSTANTANEOUS             AVERAGES
 CPU TIME [s]                 =                        0.08                 0.80
 ENERGY DRIFT PER ATOM [K]    =          0.360184371438E-01   0.116992858090E-01
 POTENTIAL ENERGY[hartree]    =          0.259401178526E+01   0.240478143793E+01
 KINETIC ENERGY [hartree]     =          0.226444681900E+01   0.245360764332E+01
 TEMPERATURE [K]              =                     530.259              574.555
 *******************************************************************************

 FOBSH| *** OFF-DIAGONAL GRADIENT CALCULATION
 FOBSH| Put former active state           2 in new active state           2
 RANDOM_NUMBER_HOPPING_PROBA  0.11613064681998794     
 FOBSH| ACTIVE STATE =            2

 ENERGY| Total FORCE_EVAL ( MIXED ) energy (a.u.):             2.565144063669537

 FOBSH| *** WARNING: Projection to avoid spurious transfer get lambda =   0.99830519059182277      ***
 FOBSH| CASE1: no hop and no trivial crossing
 ENTER integrator.F
 STEP NUMBER                  =          105
 CPU TIME [s]                 =    7.5881748460233212E-002  0.79642181539342616     

 *******************************************************************************
 ENSEMBLE TYPE                =                                              NVE
 STEP NUMBER                  =                                              105
 TIME [fs]                    =                                        10.500000
 CONSERVED QUANTITY [hartree] =                               0.485843524349E+01

                                              INSTANTANEOUS             AVERAGES
 CPU TIME [s]                 =                        0.08                 0.80
 ENERGY DRIFT PER ATOM [K]    =          0.278220598347E-01   0.118528360378E-01
 POTENTIAL ENERGY[hartree]    =          0.256514406367E+01   0.240630870103E+01
 KINETIC ENERGY [hartree]     =          0.229329117982E+01   0.245208081986E+01
 TEMPERATURE [K]              =                     537.014              574.197
 *******************************************************************************

 FOBSH| *** OFF-DIAGONAL GRADIENT CALCULATION
 FOBSH| Put former active state           2 in new active state           2
 RANDOM_NUMBER_HOPPING_PROBA  0.81915661724856514     
 FOBSH| ACTIVE STATE =            2

 ENERGY| Total FORCE_EVAL ( MIXED ) energy (a.u.):             2.535069177185608

 FOBSH| *** WARNING: Projection to avoid spurious transfer get lambda =   0.99827841569169795      ***
 FOBSH| CASE1: no hop and no trivial crossing
 ENTER integrator.F
 STEP NUMBER                  =          106
 CPU TIME [s]                 =    7.5402840971946716E-002  0.78961974959699710     

 *******************************************************************************
 ENSEMBLE TYPE                =                                              NVE
 STEP NUMBER                  =                                              106
 TIME [fs]                    =                                        10.600000
 CONSERVED QUANTITY [hartree] =                               0.485841112901E+01

                                              INSTANTANEOUS             AVERAGES
 CPU TIME [s]                 =                        0.08                 0.79
 ENERGY DRIFT PER ATOM [K]    =          0.193612362912E-01   0.119236700025E-01
 POTENTIAL ENERGY[hartree]    =          0.253506917719E+01   0.240752342250E+01
 KINETIC ENERGY [hartree]     =          0.232334195183E+01   0.245086630223E+01
 TEMPERATURE [K]              =                     544.051              573.913
 *******************************************************************************

 FOBSH| *** OFF-DIAGONAL GRADIENT CALCULATION
 FOBSH| Put former active state           2 in new active state           2
 RANDOM_NUMBER_HOPPING_PROBA  0.98442403919999499     
 FOBSH| ACTIVE STATE =            2

 ENERGY| Total FORCE_EVAL ( MIXED ) energy (a.u.):             2.504171627273413

 FOBSH| *** WARNING: Projection to avoid spurious transfer get lambda =   0.99825337660807090      ***
 FOBSH| CASE1: no hop and no trivial crossing
 ENTER integrator.F
 STEP NUMBER                  =          107
 CPU TIME [s]                 =    7.5829629786312580E-002  0.78294881389783177     

 *******************************************************************************
 ENSEMBLE TYPE                =                                              NVE
 STEP NUMBER                  =                                              107
 TIME [fs]                    =                                        10.700000
 CONSERVED QUANTITY [hartree] =                               0.485838652426E+01

                                              INSTANTANEOUS             AVERAGES
 CPU TIME [s]                 =                        0.08                 0.78
 ENERGY DRIFT PER ATOM [K]    =          0.107283960548E-01   0.119124992179E-01
 POTENTIAL ENERGY[hartree]    =          0.250417162727E+01   0.240842667675E+01
 KINETIC ENERGY [hartree]     =          0.235421489699E+01   0.244996301807E+01
 TEMPERATURE [K]              =                     551.280              573.701
 *******************************************************************************

 FOBSH| *** OFF-DIAGONAL GRADIENT CALCULATION
 FOBSH| Put former active state           2 in new active state           2
 RANDOM_NUMBER_HOPPING_PROBA  0.48837860337988231     
 FOBSH| ACTIVE STATE =            2

 ENERGY| Total FORCE_EVAL ( MIXED ) energy (a.u.):             2.472843268938967

 FOBSH| *** WARNING: Projection to avoid spurious transfer get lambda =   0.99823013874573141      ***
 FOBSH| CASE1: no hop and no trivial crossing
 ENTER integrator.F
 STEP NUMBER                  =          108
 CPU TIME [s]                 =    7.5143274851143360E-002  0.77639505890665861     

 *******************************************************************************
 ENSEMBLE TYPE                =                                              NVE
 STEP NUMBER                  =                                              108
 TIME [fs]                    =                                        10.800000
 CONSERVED QUANTITY [hartree] =                               0.485836175288E+01

                                              INSTANTANEOUS             AVERAGES
 CPU TIME [s]                 =                        0.08                 0.78
 ENERGY DRIFT PER ATOM [K]    =          0.203709211274E-02   0.118210602632E-01
 POTENTIAL ENERGY[hartree]    =          0.247284326894E+01   0.240902312668E+01
 KINETIC ENERGY [hartree]     =          0.238551848394E+01   0.244936630942E+01
 TEMPERATURE [K]              =                     558.611              573.562
 *******************************************************************************

 FOBSH| *** OFF-DIAGONAL GRADIENT CALCULATION
 FOBSH| Put former active state           2 in new active state           2
 RANDOM_NUMBER_HOPPING_PROBA  0.74834436682416794     
 FOBSH| ACTIVE STATE =            2

 ENERGY| Total FORCE_EVAL ( MIXED ) energy (a.u.):             2.441478286045707

 FOBSH| *** WARNING: Projection to avoid spurious transfer get lambda =   0.99820875667905895      ***
 FOBSH| CASE1: no hop and no trivial crossing
 ENTER integrator.F
 STEP NUMBER                  =          109
 CPU TIME [s]                 =    7.5677699409425259E-002  0.76996645927824359     

 *******************************************************************************
 ENSEMBLE TYPE                =                                              NVE
 STEP NUMBER                  =                                              109
 TIME [fs]                    =                                        10.900000
 CONSERVED QUANTITY [hartree] =                               0.485833712930E+01

                                              INSTANTANEOUS             AVERAGES
 CPU TIME [s]                 =                        0.08                 0.77
 ENERGY DRIFT PER ATOM [K]    =         -0.660235694939E-02   0.116520380870E-01
 POTENTIAL ENERGY[hartree]    =          0.244147828605E+01   0.240932088043E+01
 KINETIC ENERGY [hartree]     =          0.241685884325E+01   0.244906807579E+01
 TEMPERATURE [K]              =                     565.949              573.492
 *******************************************************************************

 FOBSH| *** OFF-DIAGONAL GRADIENT CALCULATION
 FOBSH| Put former active state           2 in new active state           2
 RANDOM_NUMBER_HOPPING_PROBA  0.47055881397710964     
 FOBSH| ACTIVE STATE =            2

 ENERGY| Total FORCE_EVAL ( MIXED ) energy (a.u.):             2.410468255110101

 FOBSH| *** WARNING: Projection to avoid spurious transfer get lambda =   0.99818925307237027      ***
 FOBSH| CASE1: no hop and no trivial crossing
 ENTER integrator.F
 STEP NUMBER                  =          110
 CPU TIME [s]                 =    7.5326755642890930E-002  0.76365155288155850     

 *******************************************************************************
 ENSEMBLE TYPE                =                                              NVE
 STEP NUMBER                  =                                              110
 TIME [fs]                    =                                        11.000000
 CONSERVED QUANTITY [hartree] =                               0.485831297961E+01

                                              INSTANTANEOUS             AVERAGES
 CPU TIME [s]                 =                        0.08                 0.76
 ENERGY DRIFT PER ATOM [K]    =         -0.150755338552E-01   0.114090601602E-01
 POTENTIAL ENERGY[hartree]    =          0.241046825511E+01   0.240933131111E+01
 KINETIC ENERGY [hartree]     =          0.244784472450E+01   0.244905695441E+01
 TEMPERATURE [K]              =                     573.205              573.489
 *******************************************************************************

 FOBSH| *** OFF-DIAGONAL GRADIENT CALCULATION
 FOBSH| Put former active state           2 in new active state           2
 RANDOM_NUMBER_HOPPING_PROBA  0.13436164193489161     
 FOBSH| ACTIVE STATE =            2

 ENERGY| Total FORCE_EVAL ( MIXED ) energy (a.u.):             2.380197246342969

 FOBSH| *** WARNING: Projection to avoid spurious transfer get lambda =   0.99817154480609749      ***
 FOBSH| CASE1: no hop and no trivial crossing
 ENTER integrator.F
 STEP NUMBER                  =          111
 CPU TIME [s]                 =    7.4839016422629356E-002  0.75744603453508175     

 *******************************************************************************
 ENSEMBLE TYPE                =                                              NVE
 STEP NUMBER                  =                                              111
 TIME [fs]                    =                                        11.100000
 CONSERVED QUANTITY [hartree] =                               0.485828956053E+01

                                              INSTANTANEOUS             AVERAGES
 CPU TIME [s]                 =                        0.07                 0.76
 ENERGY DRIFT PER ATOM [K]    =         -0.232923673369E-01   0.110964346873E-01
 POTENTIAL ENERGY[hartree]    =          0.238019724634E+01   0.240906884206E+01
 KINETIC ENERGY [hartree]     =          0.247809231419E+01   0.244931853423E+01
 TEMPERATURE [K]              =                     580.288              573.550
 *******************************************************************************

 FOBSH| *** OFF-DIAGONAL GRADIENT CALCULATION
 FOBSH| Put former active state           2 in new active state           2
 RANDOM_NUMBER_HOPPING_PROBA  0.61395954287228760     
 FOBSH| ACTIVE STATE =            2

 ENERGY| Total FORCE_EVAL ( MIXED ) energy (a.u.):             2.351038230614309

 FOBSH| *** WARNING: Projection to avoid spurious transfer get lambda =   0.99815376259802824      ***
 FOBSH| CASE1: no hop and no trivial crossing
 ENTER integrator.F
 STEP NUMBER                  =          112
 CPU TIME [s]                 =    7.5338633731007576E-002  0.75135578988504526     

 *******************************************************************************
 ENSEMBLE TYPE                =                                              NVE
 STEP NUMBER                  =                                              112
 TIME [fs]                    =                                        11.200000
 CONSERVED QUANTITY [hartree] =                               0.485826480337E+01

                                              INSTANTANEOUS             AVERAGES
 CPU TIME [s]                 =                        0.08                 0.75
 ENERGY DRIFT PER ATOM [K]    =         -0.319786824149E-01   0.107118354274E-01
 POTENTIAL ENERGY[hartree]    =          0.235103823061E+01   0.240855071160E+01
 KINETIC ENERGY [hartree]     =          0.250722657276E+01   0.244983557029E+01
 TEMPERATURE [K]              =                     587.111              573.671
 *******************************************************************************

 FOBSH| *** OFF-DIAGONAL GRADIENT CALCULATION
 FOBSH! Reorgering: for state           1  we stay in with overlap -0.35631472381938756       instead of goind to            2 with overlap -0.93434023327902860     
 FOBSH! Reorgering: for state           2  we stay in with overlap  0.35631814517968524       instead of goind to            1 with overlap -0.93436190295899446     
 FOBSH| New map:            0           0           3           4           5           6           7           8
 FOBSH! New map again:           0           0           3           4           5           6           7           8
 FOBSH| Put former active state           2 in new active state           2
 FOBSH| *** WARNING: difference between exact flux and sum of Tully's proba is   21.171715866115651      ***
 RANDOM_NUMBER_HOPPING_PROBA  0.96457107309968759     
 FOBSH| ATTEMPTED_HOP
 FOBSH| ACTIVE STATE =            2

 ENERGY| Total FORCE_EVAL ( MIXED ) energy (a.u.):             2.323420865944606

 FOBSH| Active state before the attempt to hop:           2

 ENERGY| Total FORCE_EVAL ( MIXED ) energy (a.u.):             2.323340801278957

 FOBSH| Active state after the attempt to hop:           1
 FOBSH| *** WARNING: Projection to avoid spurious transfer get lambda =   0.99814447077423252      ***
 FOBSH| CASE6: successful hop and good overlap
 ENTER integrator.F
 STEP NUMBER                  =          113
 CPU TIME [s]                 =    9.6084701828658581E-002  0.74555693069870554     

 *******************************************************************************
 ENSEMBLE TYPE                =                                              NVE
 STEP NUMBER                  =                                              113
 TIME [fs]                    =                                        11.300000
 CONSERVED QUANTITY [hartree] =                               0.485826827558E+01

                                              INSTANTANEOUS             AVERAGES
 CPU TIME [s]                 =                        0.10                 0.75
 ENERGY DRIFT PER ATOM [K]    =         -0.307604217676E-01   0.103448243018E-01
 POTENTIAL ENERGY[hartree]    =          0.232334080128E+01   0.240779664160E+01
 KINETIC ENERGY [hartree]     =          0.253492747430E+01   0.245058859599E+01
 TEMPERATURE [K]              =                     593.597              573.848
 *******************************************************************************

 FOBSH| *** OFF-DIAGONAL GRADIENT CALCULATION
 FOBSH| Put former active state           1 in new active state           1
 RANDOM_NUMBER_HOPPING_PROBA  0.66751708994702319     
 FOBSH| ACTIVE STATE =            1

 ENERGY| Total FORCE_EVAL ( MIXED ) energy (a.u.):             2.297443680554070

 FOBSH| *** WARNING: Projection to avoid spurious transfer get lambda =   0.99813229885288413      ***
 FOBSH| CASE1: no hop and no trivial crossing
 ENTER integrator.F
 STEP NUMBER                  =          114
 CPU TIME [s]                 =    7.4874935671687126E-002  0.73967375530373158     

 *******************************************************************************
 ENSEMBLE TYPE                =                                              NVE
 STEP NUMBER                  =                                              114
 TIME [fs]                    =                                        11.400000
 CONSERVED QUANTITY [hartree] =                               0.485824871926E+01

                                              INSTANTANEOUS             AVERAGES
 CPU TIME [s]                 =                        0.07                 0.74
 ENERGY DRIFT PER ATOM [K]    =         -0.376219645710E-01   0.992406299592E-02
 POTENTIAL ENERGY[hartree]    =          0.229744368055E+01   0.240682863317E+01
 KINETIC ENERGY [hartree]     =          0.256080503871E+01   0.245155540689E+01
 TEMPERATURE [K]              =                     599.657              574.074
 *******************************************************************************

 FOBSH| *** OFF-DIAGONAL GRADIENT CALCULATION
 FOBSH| Put former active state           1 in new active state           1
 RANDOM_NUMBER_HOPPING_PROBA  0.15813975196636013     
 FOBSH| ACTIVE STATE =            1

 ENERGY| Total FORCE_EVAL ( MIXED ) energy (a.u.):             2.273652843139430

 FOBSH| *** WARNING: Projection to avoid spurious transfer get lambda =   0.99812248031949169      ***
 FOBSH| CASE1: no hop and no trivial crossing
 ENTER integrator.F
 STEP NUMBER                  =          115
 CPU TIME [s]                 =    7.5003793463110924E-002  0.73389401650511743     

 *******************************************************************************
 ENSEMBLE TYPE                =                                              NVE
 STEP NUMBER                  =                                              115
 TIME [fs]                    =                                        11.500000
 CONSERVED QUANTITY [hartree] =                               0.485823109340E+01

                                              INSTANTANEOUS             AVERAGES
 CPU TIME [s]                 =                        0.08                 0.73
 ENERGY DRIFT PER ATOM [K]    =         -0.438061890995E-01   0.945684341248E-02
 POTENTIAL ENERGY[hartree]    =          0.227365284314E+01   0.240567058282E+01
 KINETIC ENERGY [hartree]     =          0.258457825026E+01   0.245271212727E+01
 TEMPERATURE [K]              =                     605.224              574.345
 *******************************************************************************

 FOBSH| *** OFF-DIAGONAL GRADIENT CALCULATION
 FOBSH| Put former active state           1 in new active state           1
 RANDOM_NUMBER_HOPPING_PROBA   1.8543802866970889E-002
 FOBSH| ACTIVE STATE =            1

 ENERGY| Total FORCE_EVAL ( MIXED ) energy (a.u.):             2.252247013558810

 FOBSH| CASE1: no hop and no trivial crossing
 ENTER integrator.F
 STEP NUMBER                  =          116
 CPU TIME [s]                 =    7.4687656946480274E-002  0.72821120306064646     

 *******************************************************************************
 ENSEMBLE TYPE                =                                              NVE
 STEP NUMBER                  =                                              116
 TIME [fs]                    =                                        11.600000
 CONSERVED QUANTITY [hartree] =                               0.485821551763E+01

                                              INSTANTANEOUS             AVERAGES
 CPU TIME [s]                 =                        0.07                 0.73
 ENERGY DRIFT PER ATOM [K]    =         -0.492711138437E-01   0.895056791889E-02
 POTENTIAL ENERGY[hartree]    =          0.225224701356E+01   0.240434796584E+01
 KINETIC ENERGY [hartree]     =          0.260596850407E+01   0.245403330293E+01
 TEMPERATURE [K]              =                     610.233              574.654
 *******************************************************************************

 FOBSH| *** OFF-DIAGONAL GRADIENT CALCULATION
 FOBSH| New map:            1           2           0           0           5           6           7           8
 FOBSH! New map again:           1           2           0           0           5           6           7           8
 FOBSH| Put former active state           1 in new active state           1
 RANDOM_NUMBER_HOPPING_PROBA  0.55447641139176995     
 FOBSH| ACTIVE STATE =            1

 ENERGY| Total FORCE_EVAL ( MIXED ) energy (a.u.):             2.233472030683968

 FOBSH| CASE1: no hop and no trivial crossing
 ENTER integrator.F
 STEP NUMBER                  =          117
 CPU TIME [s]                 =    7.5385921634733677E-002  0.72263149980059593     

 *******************************************************************************
 ENSEMBLE TYPE                =                                              NVE
 STEP NUMBER                  =                                              117
 TIME [fs]                    =                                        11.700000
 CONSERVED QUANTITY [hartree] =                               0.485820213628E+01

                                              INSTANTANEOUS             AVERAGES
 CPU TIME [s]                 =                        0.08                 0.72
 ENERGY DRIFT PER ATOM [K]    =         -0.539661033618E-01   0.841281859171E-02
 POTENTIAL ENERGY[hartree]    =          0.223347203068E+01   0.240288748777E+01
 KINETIC ENERGY [hartree]     =          0.262473010560E+01   0.245549224996E+01
 TEMPERATURE [K]              =                     614.626              574.996
 *******************************************************************************

 FOBSH| *** OFF-DIAGONAL GRADIENT CALCULATION
 FOBSH| Put former active state           1 in new active state           1
 RANDOM_NUMBER_HOPPING_PROBA  0.46705821136667119     
 FOBSH| ACTIVE STATE =            1

 ENERGY| Total FORCE_EVAL ( MIXED ) energy (a.u.):             2.217538119900213

 FOBSH| CASE1: no hop and no trivial crossing
 ENTER integrator.F
 STEP NUMBER                  =          118
 CPU TIME [s]                 =    7.4855657294392586E-002  0.71714187401664498     

 *******************************************************************************
 ENSEMBLE TYPE                =                                              NVE
 STEP NUMBER                  =                                              118
 TIME [fs]                    =                                        11.800000
 CONSERVED QUANTITY [hartree] =                               0.485819113908E+01

                                              INSTANTANEOUS             AVERAGES
 CPU TIME [s]                 =                        0.07                 0.72
 ENERGY DRIFT PER ATOM [K]    =         -0.578245903501E-01   0.785148461762E-02
 POTENTIAL ENERGY[hartree]    =          0.221753811990E+01   0.240131673041E+01
 KINETIC ENERGY [hartree]     =          0.264065301918E+01   0.245706140902E+01
 TEMPERATURE [K]              =                     618.355              575.364
 *******************************************************************************

 FOBSH| *** OFF-DIAGONAL GRADIENT CALCULATION
 FOBSH| Put former active state           1 in new active state           1
 RANDOM_NUMBER_HOPPING_PROBA  0.17124770665995848     
 FOBSH| ACTIVE STATE =            1

 ENERGY| Total FORCE_EVAL ( MIXED ) energy (a.u.):             2.204617314018061

 FOBSH| CASE1: no hop and no trivial crossing
 ENTER integrator.F
 STEP NUMBER                  =          119
 CPU TIME [s]                 =    7.4800061061978340E-002  0.71174404365568145     

 *******************************************************************************
 ENSEMBLE TYPE                =                                              NVE
 STEP NUMBER                  =                                              119
 TIME [fs]                    =                                        11.900000
 CONSERVED QUANTITY [hartree] =                               0.485818265034E+01

                                              INSTANTANEOUS             AVERAGES
 CPU TIME [s]                 =                        0.07                 0.71
 ENERGY DRIFT PER ATOM [K]    =         -0.608029548808E-01   0.727455655461E-02
 POTENTIAL ENERGY[hartree]    =          0.220461731402E+01   0.239966379414E+01
 KINETIC ENERGY [hartree]     =          0.265356533632E+01   0.245871270253E+01
 TEMPERATURE [K]              =                     621.378              575.750
 *******************************************************************************

 FOBSH| *** OFF-DIAGONAL GRADIENT CALCULATION
 FOBSH| Put former active state           1 in new active state           1
 RANDOM_NUMBER_HOPPING_PROBA  0.38379703551292965     
 FOBSH| ACTIVE STATE =            1

 ENERGY| Total FORCE_EVAL ( MIXED ) energy (a.u.):             2.194841473608343

 FOBSH| CASE1: no hop and no trivial crossing
 ENTER integrator.F
 STEP NUMBER                  =          120
 CPU TIME [s]                 =    7.4862889014184475E-002  0.70643670070033560     

 *******************************************************************************
 ENSEMBLE TYPE                =                                              NVE
 STEP NUMBER                  =                                              120
 TIME [fs]                    =                                        12.000000
 CONSERVED QUANTITY [hartree] =                               0.485817675171E+01

                                              INSTANTANEOUS             AVERAGES
 CPU TIME [s]                 =                        0.07                 0.71
 ENERGY DRIFT PER ATOM [K]    =         -0.628725538758E-01   0.668999730103E-02
 POTENTIAL ENERGY[hartree]    =          0.219484147361E+01   0.239795694147E+01
 KINETIC ENERGY [hartree]     =          0.266333527810E+01   0.246041789066E+01
 TEMPERATURE [K]              =                     623.666              576.149
 *******************************************************************************

 FOBSH| *** OFF-DIAGONAL GRADIENT CALCULATION
 FOBSH| Put former active state           1 in new active state           1
 RANDOM_NUMBER_HOPPING_PROBA  0.73695705884300833     
 FOBSH| ACTIVE STATE =            1

 ENERGY| Total FORCE_EVAL ( MIXED ) energy (a.u.):             2.188300819793600

 FOBSH| CASE1: no hop and no trivial crossing
 ENTER integrator.F
 STEP NUMBER                  =          121
 CPU TIME [s]                 =    7.4468308128416538E-002  0.70121382142288180     

 *******************************************************************************
 ENSEMBLE TYPE                =                                              NVE
 STEP NUMBER                  =                                              121
 TIME [fs]                    =                                        12.100000
 CONSERVED QUANTITY [hartree] =                               0.485817351524E+01

                                              INSTANTANEOUS             AVERAGES
 CPU TIME [s]                 =                        0.07                 0.70
 ENERGY DRIFT PER ATOM [K]    =         -0.640081011866E-01   0.610571549534E-02
 POTENTIAL ENERGY[hartree]    =          0.218830081979E+01   0.239622424625E+01
 KINETIC ENERGY [hartree]     =          0.266987269545E+01   0.246214892210E+01
 TEMPERATURE [K]              =                     625.197              576.555
 *******************************************************************************

 FOBSH| *** OFF-DIAGONAL GRADIENT CALCULATION
 FOBSH| Put former active state           1 in new active state           1
 RANDOM_NUMBER_HOPPING_PROBA  0.63935112743290023     
 FOBSH| ACTIVE STATE =            1

 ENERGY| Total FORCE_EVAL ( MIXED ) energy (a.u.):             2.185042924934274

 FOBSH| CASE1: no hop and no trivial crossing
 ENTER integrator.F
 STEP NUMBER                  =          122
 CPU TIME [s]                 =    7.4803940020501614E-002  0.69607931419827207     

 *******************************************************************************
 ENSEMBLE TYPE                =                                              NVE
 STEP NUMBER                  =                                              122
 TIME [fs]                    =                                        12.200000
 CONSERVED QUANTITY [hartree] =                               0.485817294650E+01

                                              INSTANTANEOUS             AVERAGES
 CPU TIME [s]                 =                        0.07                 0.70
 ENERGY DRIFT PER ATOM [K]    =         -0.642076520988E-01   0.552937641670E-02
 POTENTIAL ENERGY[hartree]    =          0.218504292493E+01   0.239449325181E+01
 KINETIC ENERGY [hartree]     =          0.267313002156E+01   0.246387827538E+01
 TEMPERATURE [K]              =                     625.960              576.960
 *******************************************************************************

 FOBSH| *** OFF-DIAGONAL GRADIENT CALCULATION
 FOBSH| Put former active state           1 in new active state           1
 RANDOM_NUMBER_HOPPING_PROBA  0.61373709134229348     
 FOBSH| ACTIVE STATE =            1

 ENERGY| Total FORCE_EVAL ( MIXED ) energy (a.u.):             2.185072401163122

 FOBSH| CASE1: no hop and no trivial crossing
 ENTER integrator.F
 STEP NUMBER                  =          123
 CPU TIME [s]                 =    7.5021267868578434E-002  0.69103006178908766     

 *******************************************************************************
 ENSEMBLE TYPE                =                                              NVE
 STEP NUMBER                  =                                              123
 TIME [fs]                    =                                        12.300000
 CONSERVED QUANTITY [hartree] =                               0.485817505798E+01

                                              INSTANTANEOUS             AVERAGES
 CPU TIME [s]                 =                        0.08                 0.69
 ENERGY DRIFT PER ATOM [K]    =         -0.634668154886E-01   0.496843176707E-02
 POTENTIAL ENERGY[hartree]    =          0.218507240116E+01   0.239279064327E+01
 KINETIC ENERGY [hartree]     =          0.267310265682E+01   0.246557928661E+01
 TEMPERATURE [K]              =                     625.953              577.358
 *******************************************************************************

 FOBSH| *** OFF-DIAGONAL GRADIENT CALCULATION
 FOBSH| Put former active state           1 in new active state           1
 RANDOM_NUMBER_HOPPING_PROBA  0.43788450748659152     
 FOBSH| ACTIVE STATE =            1

 ENERGY| Total FORCE_EVAL ( MIXED ) energy (a.u.):             2.188350949039509

 FOBSH| CASE1: no hop and no trivial crossing
 ENTER integrator.F
 STEP NUMBER                  =          124
 CPU TIME [s]                 =    7.4558616615831852E-002  0.68605851787640015     

 *******************************************************************************
 ENSEMBLE TYPE                =                                              NVE
 STEP NUMBER                  =                                              124
 TIME [fs]                    =                                        12.400000
 CONSERVED QUANTITY [hartree] =                               0.485817980305E+01

                                              INSTANTANEOUS             AVERAGES
 CPU TIME [s]                 =                        0.07                 0.69
 ENERGY DRIFT PER ATOM [K]    =         -0.618019573063E-01   0.442996088744E-02
 POTENTIAL ENERGY[hartree]    =          0.218835094904E+01   0.239114193606E+01
 KINETIC ENERGY [hartree]     =          0.266982885401E+01   0.246722646054E+01
 TEMPERATURE [K]              =                     625.187              577.744
 *******************************************************************************

 FOBSH| *** OFF-DIAGONAL GRADIENT CALCULATION
 FOBSH| Put former active state           1 in new active state           1
 RANDOM_NUMBER_HOPPING_PROBA  0.79470406968576057     
 FOBSH| ACTIVE STATE =            1

 ENERGY| Total FORCE_EVAL ( MIXED ) energy (a.u.):             2.194798077790212

 FOBSH| CASE1: no hop and no trivial crossing
 ENTER integrator.F
 STEP NUMBER                  =          125
 CPU TIME [s]                 =    7.4843934737145901E-002  0.68116880121128609     

 *******************************************************************************
 ENSEMBLE TYPE                =                                              NVE
 STEP NUMBER                  =                                              125
 TIME [fs]                    =                                        12.500000
 CONSERVED QUANTITY [hartree] =                               0.485818710648E+01

                                              INSTANTANEOUS             AVERAGES
 CPU TIME [s]                 =                        0.07                 0.68
 ENERGY DRIFT PER ATOM [K]    =         -0.592394709961E-01   0.392060543237E-02
 POTENTIAL ENERGY[hartree]    =          0.219479807779E+01   0.238957118519E+01
 KINETIC ENERGY [hartree]     =          0.266338902869E+01   0.246879576108E+01
 TEMPERATURE [K]              =                     623.679              578.111
 *******************************************************************************

 FOBSH| *** OFF-DIAGONAL GRADIENT CALCULATION
 FOBSH| Put former active state           1 in new active state           1
 RANDOM_NUMBER_HOPPING_PROBA   8.0632420902034166E-002
 FOBSH| ACTIVE STATE =            1

 ENERGY| Total FORCE_EVAL ( MIXED ) energy (a.u.):             2.204292375624204

 FOBSH| CASE1: no hop and no trivial crossing
 ENTER integrator.F
 STEP NUMBER                  =          126
 CPU TIME [s]                 =    7.4851796030998230E-002  0.67635676148763302     

 *******************************************************************************
 ENSEMBLE TYPE                =                                              NVE
 STEP NUMBER                  =                                              126
 TIME [fs]                    =                                        12.600000
 CONSERVED QUANTITY [hartree] =                               0.485819683942E+01

                                              INSTANTANEOUS             AVERAGES
 CPU TIME [s]                 =                        0.07                 0.68
 ENERGY DRIFT PER ATOM [K]    =         -0.558245648216E-01   0.344643741448E-02
 POTENTIAL ENERGY[hartree]    =          0.220429237562E+01   0.238810071845E+01
 KINETIC ENERGY [hartree]     =          0.265390446379E+01   0.247026487777E+01
 TEMPERATURE [K]              =                     621.458              578.455
 *******************************************************************************

 FOBSH| *** OFF-DIAGONAL GRADIENT CALCULATION
 FOBSH| Put former active state           1 in new active state           1
 RANDOM_NUMBER_HOPPING_PROBA  0.81073704236962485     
 FOBSH| ACTIVE STATE =            1

 ENERGY| Total FORCE_EVAL ( MIXED ) energy (a.u.):             2.216673281217298

 FOBSH| CASE1: no hop and no trivial crossing
 ENTER integrator.F
 STEP NUMBER                  =          127
 CPU TIME [s]                 =    7.4971140362322330E-002  0.67162144163625259     

 *******************************************************************************
 ENSEMBLE TYPE                =                                              NVE
 STEP NUMBER                  =                                              127
 TIME [fs]                    =                                        12.700000
 CONSERVED QUANTITY [hartree] =                               0.485820888793E+01

                                              INSTANTANEOUS             AVERAGES
 CPU TIME [s]                 =                        0.07                 0.67
 ENERGY DRIFT PER ATOM [K]    =         -0.515972137008E-01   0.301302283877E-02
 POTENTIAL ENERGY[hartree]    =          0.221667328122E+01   0.238675089611E+01
 KINETIC ENERGY [hartree]     =          0.264153560672E+01   0.247161346619E+01
 TEMPERATURE [K]              =                     618.561              578.771
 *******************************************************************************

 FOBSH| *** OFF-DIAGONAL GRADIENT CALCULATION
 FOBSH| Put former active state           1 in new active state           1
 RANDOM_NUMBER_HOPPING_PROBA  0.96132350735256678     
 FOBSH| ACTIVE STATE =            1

 ENERGY| Total FORCE_EVAL ( MIXED ) energy (a.u.):             2.231743256861891

 FOBSH| CASE1: no hop and no trivial crossing
 ENTER integrator.F
 STEP NUMBER                  =          128
 CPU TIME [s]                 =    7.4640103615820408E-002  0.66695752493296800     

 *******************************************************************************
 ENSEMBLE TYPE                =                                              NVE
 STEP NUMBER                  =                                              128
 TIME [fs]                    =                                        12.800000
 CONSERVED QUANTITY [hartree] =                               0.485822306611E+01

                                              INSTANTANEOUS             AVERAGES
 CPU TIME [s]                 =                        0.07                 0.67
 ENERGY DRIFT PER ATOM [K]    =         -0.466226500231E-01   0.262524414454E-02
 POTENTIAL ENERGY[hartree]    =          0.223174325686E+01   0.238553989893E+01
 KINETIC ENERGY [hartree]     =          0.262647980924E+01   0.247282335949E+01
 TEMPERATURE [K]              =                     615.036              579.054
 *******************************************************************************

 FOBSH| *** OFF-DIAGONAL GRADIENT CALCULATION
 FOBSH| Put former active state           1 in new active state           1
 RANDOM_NUMBER_HOPPING_PROBA   8.1592189141357171E-002
 FOBSH| ACTIVE STATE =            1

 ENERGY| Total FORCE_EVAL ( MIXED ) energy (a.u.):             2.249270619796928

 FOBSH| CASE1: no hop and no trivial crossing
 ENTER integrator.F
 STEP NUMBER                  =          129
 CPU TIME [s]                 =    7.4553687125444412E-002  0.66236524712050660     

 *******************************************************************************
 ENSEMBLE TYPE                =                                              NVE
 STEP NUMBER                  =                                              129
 TIME [fs]                    =                                        12.900000
 CONSERVED QUANTITY [hartree] =                               0.485823917868E+01

                                              INSTANTANEOUS             AVERAGES
 CPU TIME [s]                 =                        0.07                 0.66
 ENERGY DRIFT PER ATOM [K]    =         -0.409693807456E-01   0.228730131594E-02
 POTENTIAL ENERGY[hartree]    =          0.224927061980E+01   0.238448354793E+01
 KINETIC ENERGY [hartree]     =          0.260896855888E+01   0.247387874864E+01
 TEMPERATURE [K]              =                     610.935              579.302
 *******************************************************************************

 FOBSH| *** OFF-DIAGONAL GRADIENT CALCULATION
 FOBSH| Put former active state           1 in new active state           1
 RANDOM_NUMBER_HOPPING_PROBA  0.55703783800449935     
 FOBSH| ACTIVE STATE =            1

 ENERGY| Total FORCE_EVAL ( MIXED ) energy (a.u.):             2.268992726085835

 FOBSH| CASE1: no hop and no trivial crossing
 ENTER integrator.F
 STEP NUMBER                  =          130
 CPU TIME [s]                 =    7.4767449870705605E-002  0.65784526406473887     

 *******************************************************************************
 ENSEMBLE TYPE                =                                              NVE
 STEP NUMBER                  =                                              130
 TIME [fs]                    =                                        13.000000
 CONSERVED QUANTITY [hartree] =                               0.485825701330E+01

                                              INSTANTANEOUS             AVERAGES
 CPU TIME [s]                 =                        0.07                 0.66
 ENERGY DRIFT PER ATOM [K]    =         -0.347119136465E-01   0.200269197007E-02
 POTENTIAL ENERGY[hartree]    =          0.226899272609E+01   0.238359515699E+01
 KINETIC ENERGY [hartree]     =          0.258926428721E+01   0.247476632970E+01
 TEMPERATURE [K]              =                     606.321              579.509
 *******************************************************************************

 FOBSH| *** OFF-DIAGONAL GRADIENT CALCULATION
 FOBSH| Put former active state           1 in new active state           1
 RANDOM_NUMBER_HOPPING_PROBA  0.55020624805309337     
 FOBSH| ACTIVE STATE =            1

 ENERGY| Total FORCE_EVAL ( MIXED ) energy (a.u.):             2.290619470270196

 FOBSH| CASE1: no hop and no trivial crossing
 ENTER integrator.F
 STEP NUMBER                  =          131
 CPU TIME [s]                 =    7.4773249216377735E-002  0.65339433265368263     

 *******************************************************************************
 ENSEMBLE TYPE                =                                              NVE
 STEP NUMBER                  =                                              131
 TIME [fs]                    =                                        13.100000
 CONSERVED QUANTITY [hartree] =                               0.485827631596E+01

                                              INSTANTANEOUS             AVERAGES
 CPU TIME [s]                 =                        0.07                 0.65
 ENERGY DRIFT PER ATOM [K]    =         -0.279393669765E-01   0.177412663460E-02
 POTENTIAL ENERGY[hartree]    =          0.229061947027E+01   0.238288541892E+01
 KINETIC ENERGY [hartree]     =          0.256765684569E+01   0.247547541761E+01
 TEMPERATURE [K]              =                     601.261              579.675
 *******************************************************************************

 FOBSH| *** OFF-DIAGONAL GRADIENT CALCULATION
 FOBSH| Put former active state           1 in new active state           1
 RANDOM_NUMBER_HOPPING_PROBA  0.59113961433922868     
 FOBSH| ACTIVE STATE =            1

 ENERGY| Total FORCE_EVAL ( MIXED ) energy (a.u.):             2.313837229003316

 FOBSH| CASE1: no hop and no trivial crossing
 ENTER integrator.F
 STEP NUMBER                  =          132
 CPU TIME [s]                 =    7.4913037940859795E-002  0.64901189860282793     

 *******************************************************************************
 ENSEMBLE TYPE                =                                              NVE
 STEP NUMBER                  =                                              132
 TIME [fs]                    =                                        13.200000
 CONSERVED QUANTITY [hartree] =                               0.485829682395E+01

                                              INSTANTANEOUS             AVERAGES
 CPU TIME [s]                 =                        0.07                 0.65
 ENERGY DRIFT PER ATOM [K]    =         -0.207439212590E-01   0.160353536268E-02
 POTENTIAL ENERGY[hartree]    =          0.231383722900E+01   0.238236232657E+01
 KINETIC ENERGY [hartree]     =          0.254445959494E+01   0.247599802501E+01
 TEMPERATURE [K]              =                     595.829              579.798
 *******************************************************************************

 FOBSH| *** OFF-DIAGONAL GRADIENT CALCULATION
 FOBSH| Put former active state           1 in new active state           1
 RANDOM_NUMBER_HOPPING_PROBA  0.34464328472637651     
 FOBSH| ACTIVE STATE =            1

 ENERGY| Total FORCE_EVAL ( MIXED ) energy (a.u.):             2.338313036737588

 FOBSH| CASE1: no hop and no trivial crossing
 ENTER integrator.F
 STEP NUMBER                  =          133
 CPU TIME [s]                 =    7.4582109227776527E-002  0.64469287763008321     

 *******************************************************************************
 ENSEMBLE TYPE                =                                              NVE
 STEP NUMBER                  =                                              133
 TIME [fs]                    =                                        13.300000
 CONSERVED QUANTITY [hartree] =                               0.485831824409E+01

                                              INSTANTANEOUS             AVERAGES
 CPU TIME [s]                 =                        0.07                 0.64
 ENERGY DRIFT PER ATOM [K]    =         -0.132284325226E-01   0.149201680715E-02
 POTENTIAL ENERGY[hartree]    =          0.233831303674E+01   0.238203112891E+01
 KINETIC ENERGY [hartree]     =          0.252000520736E+01   0.247632890608E+01
 TEMPERATURE [K]              =                     590.103              579.875
 *******************************************************************************

 FOBSH| *** OFF-DIAGONAL GRADIENT CALCULATION
 FOBSH| Put former active state           1 in new active state           1
 RANDOM_NUMBER_HOPPING_PROBA  0.67867183363152239     
 FOBSH| ACTIVE STATE =            1

 ENERGY| Total FORCE_EVAL ( MIXED ) energy (a.u.):             2.363699064103963

 FOBSH| CASE1: no hop and no trivial crossing
 ENTER integrator.F
 STEP NUMBER                  =          134
 CPU TIME [s]                 =    7.5246002525091171E-002  0.64044327408452362     

 *******************************************************************************
 ENSEMBLE TYPE                =                                              NVE
 STEP NUMBER                  =                                              134
 TIME [fs]                    =                                        13.400000
 CONSERVED QUANTITY [hartree] =                               0.485834033501E+01

                                              INSTANTANEOUS             AVERAGES
 CPU TIME [s]                 =                        0.08                 0.64
 ENERGY DRIFT PER ATOM [K]    =         -0.547759693289E-02   0.144000476431E-02
 POTENTIAL ENERGY[hartree]    =          0.236369906410E+01   0.238189432245E+01
 KINETIC ENERGY [hartree]     =          0.249464127091E+01   0.247646556552E+01
 TEMPERATURE [K]              =                     584.163              579.907
 *******************************************************************************

 FOBSH| *** OFF-DIAGONAL GRADIENT CALCULATION
 FOBSH| Put former active state           1 in new active state           1
 RANDOM_NUMBER_HOPPING_PROBA  0.33097863659345467     
 FOBSH| ACTIVE STATE =            1

 ENERGY| Total FORCE_EVAL ( MIXED ) energy (a.u.):             2.389637108191509

 FOBSH| CASE1: no hop and no trivial crossing
 ENTER integrator.F
 STEP NUMBER                  =          135
 CPU TIME [s]                 =    7.4588498100638390E-002  0.63625175722538374     

 *******************************************************************************
 ENSEMBLE TYPE                =                                              NVE
 STEP NUMBER                  =                                              135
 TIME [fs]                    =                                        13.500000
 CONSERVED QUANTITY [hartree] =                               0.485836275269E+01

                                              INSTANTANEOUS             AVERAGES
 CPU TIME [s]                 =                        0.07                 0.64
 ENERGY DRIFT PER ATOM [K]    =          0.238788715388E-02   0.144702611535E-02
 POTENTIAL ENERGY[hartree]    =          0.238963710819E+01   0.238195167642E+01
 KINETIC ENERGY [hartree]     =          0.246872564450E+01   0.247640823278E+01
 TEMPERATURE [K]              =                     578.095              579.894
 *******************************************************************************

 FOBSH| *** OFF-DIAGONAL GRADIENT CALCULATION
 FOBSH| Put former active state           1 in new active state           1
 RANDOM_NUMBER_HOPPING_PROBA  0.80940816163944496     
 FOBSH| ACTIVE STATE =            1

 ENERGY| Total FORCE_EVAL ( MIXED ) energy (a.u.):             2.415763541511769

 FOBSH| CASE1: no hop and no trivial crossing
 ENTER integrator.F
 STEP NUMBER                  =          136
 CPU TIME [s]                 =    7.4871117249131203E-002  0.63212395840202884     

 *******************************************************************************
 ENSEMBLE TYPE                =                                              NVE
 STEP NUMBER                  =                                              136
 TIME [fs]                    =                                        13.600000
 CONSERVED QUANTITY [hartree] =                               0.485838522955E+01

                                              INSTANTANEOUS             AVERAGES
 CPU TIME [s]                 =                        0.07                 0.63
 ENERGY DRIFT PER ATOM [K]    =          0.102741315256E-01   0.151193130219E-02
 POTENTIAL ENERGY[hartree]    =          0.241576354151E+01   0.238220029308E+01
 KINETIC ENERGY [hartree]     =          0.244262168803E+01   0.247615980230E+01
 TEMPERATURE [K]              =                     571.982              579.836
 *******************************************************************************

 FOBSH| *** OFF-DIAGONAL GRADIENT CALCULATION
 FOBSH| Put former active state           1 in new active state           1
 RANDOM_NUMBER_HOPPING_PROBA  0.47443371654539679     
 FOBSH| ACTIVE STATE =            1

 ENERGY| Total FORCE_EVAL ( MIXED ) energy (a.u.):             2.441713959804251

 FOBSH| CASE1: no hop and no trivial crossing
 ENTER integrator.F
 STEP NUMBER                  =          137
 CPU TIME [s]                 =    7.4632816947996616E-002  0.62805467999725495     

 *******************************************************************************
 ENSEMBLE TYPE                =                                              NVE
 STEP NUMBER                  =                                              137
 TIME [fs]                    =                                        13.700000
 CONSERVED QUANTITY [hartree] =                               0.485840745255E+01

                                              INSTANTANEOUS             AVERAGES
 CPU TIME [s]                 =                        0.07                 0.63
 ENERGY DRIFT PER ATOM [K]    =          0.180713105267E-01   0.163280268339E-02
 POTENTIAL ENERGY[hartree]    =          0.244171395980E+01   0.238263469940E+01
 KINETIC ENERGY [hartree]     =          0.241669349275E+01   0.247572574165E+01
 TEMPERATURE [K]              =                     565.911              579.734
 *******************************************************************************

 FOBSH| *** OFF-DIAGONAL GRADIENT CALCULATION
 FOBSH| Put former active state           1 in new active state           1
 RANDOM_NUMBER_HOPPING_PROBA  0.13247404935644061     
 FOBSH| ACTIVE STATE =            1

 ENERGY| Total FORCE_EVAL ( MIXED ) energy (a.u.):             2.467128070575068

 FOBSH| CASE1: no hop and no trivial crossing
 ENTER integrator.F
 STEP NUMBER                  =          138
 CPU TIME [s]                 =    7.4742870405316353E-002  0.62404517413064664     

 *******************************************************************************
 ENSEMBLE TYPE                =                                              NVE
 STEP NUMBER                  =                                              138
 TIME [fs]                    =                                        13.800000
 CONSERVED QUANTITY [hartree] =                               0.485842912958E+01

                                              INSTANTANEOUS             AVERAGES
 CPU TIME [s]                 =                        0.07                 0.62
 ENERGY DRIFT PER ATOM [K]    =          0.256769287749E-01   0.180703548115E-02
 POTENTIAL ENERGY[hartree]    =          0.246712807058E+01   0.238324697021E+01
 KINETIC ENERGY [hartree]     =          0.239130105900E+01   0.247511396858E+01
 TEMPERATURE [K]              =                     559.965              579.591
 *******************************************************************************

 FOBSH| *** OFF-DIAGONAL GRADIENT CALCULATION
 FOBSH| Put former active state           1 in new active state           1
 RANDOM_NUMBER_HOPPING_PROBA  0.49222769201345745     
 FOBSH| ACTIVE STATE =            1

 ENERGY| Total FORCE_EVAL ( MIXED ) energy (a.u.):             2.491654465315916

 FOBSH| CASE1: no hop and no trivial crossing
 ENTER integrator.F
 STEP NUMBER                  =          139
 CPU TIME [s]                 =    7.4604914523661137E-002  0.62009236650757493     

 *******************************************************************************
 ENSEMBLE TYPE                =                                              NVE
 STEP NUMBER                  =                                              139
 TIME [fs]                    =                                        13.900000
 CONSERVED QUANTITY [hartree] =                               0.485844995184E+01

                                              INSTANTANEOUS             AVERAGES
 CPU TIME [s]                 =                        0.07                 0.62
 ENERGY DRIFT PER ATOM [K]    =          0.329826423376E-01   0.203132042257E-02
 POTENTIAL ENERGY[hartree]    =          0.249165446532E+01   0.238402688024E+01
 KINETIC ENERGY [hartree]     =          0.236679548652E+01   0.247433469893E+01
 TEMPERATURE [K]              =                     554.226              579.408
 *******************************************************************************

 FOBSH| *** OFF-DIAGONAL GRADIENT CALCULATION
 FOBSH| Put former active state           1 in new active state           1
 RANDOM_NUMBER_HOPPING_PROBA  0.66895639620323910     
 FOBSH| ACTIVE STATE =            1

 ENERGY| Total FORCE_EVAL ( MIXED ) energy (a.u.):             2.514955255258585

 FOBSH| CASE1: no hop and no trivial crossing
 ENTER integrator.F
 STEP NUMBER                  =          140
 CPU TIME [s]                 =    7.4883438646793365E-002  0.61619801702285504     

 *******************************************************************************
 ENSEMBLE TYPE                =                                              NVE
 STEP NUMBER                  =                                              140
 TIME [fs]                    =                                        14.000000
 CONSERVED QUANTITY [hartree] =                               0.485846966017E+01

                                              INSTANTANEOUS             AVERAGES
 CPU TIME [s]                 =                        0.07                 0.62
 ENERGY DRIFT PER ATOM [K]    =          0.398975204002E-01   0.230179327955E-02
 POTENTIAL ENERGY[hartree]    =          0.251495525526E+01   0.238496208292E+01
 KINETIC ENERGY [hartree]     =          0.234351440491E+01   0.247340026826E+01
 TEMPERATURE [K]              =                     548.775              579.190
 *******************************************************************************

 FOBSH| *** OFF-DIAGONAL GRADIENT CALCULATION
 FOBSH| Put former active state           1 in new active state           1
 RANDOM_NUMBER_HOPPING_PROBA  0.86101872639076216     
 FOBSH| ACTIVE STATE =            1

 ENERGY| Total FORCE_EVAL ( MIXED ) energy (a.u.):             2.536710460925648

 FOBSH| CASE1: no hop and no trivial crossing
 ENTER integrator.F
 STEP NUMBER                  =          141
 CPU TIME [s]                 =    7.4677273631095886E-002  0.61235744437468653     

 *******************************************************************************
 ENSEMBLE TYPE                =                                              NVE
 STEP NUMBER                  =                                              141
 TIME [fs]                    =                                        14.100000
 CONSERVED QUANTITY [hartree] =                               0.485848799771E+01

                                              INSTANTANEOUS             AVERAGES
 CPU TIME [s]                 =                        0.07                 0.61
 ENERGY DRIFT PER ATOM [K]    =          0.463314433214E-01   0.261406030112E-02
 POTENTIAL ENERGY[hartree]    =          0.253671046093E+01   0.238603831255E+01
 KINETIC ENERGY [hartree]     =          0.232177753678E+01   0.247232492974E+01
 TEMPERATURE [K]              =                     543.684              578.938
 *******************************************************************************

 FOBSH| *** OFF-DIAGONAL GRADIENT CALCULATION
 FOBSH| Put former active state           1 in new active state           1
 RANDOM_NUMBER_HOPPING_PROBA  0.82887674016094826     
 FOBSH| ACTIVE STATE =            1

 ENERGY| Total FORCE_EVAL ( MIXED ) energy (a.u.):             2.556622202158372

 FOBSH| CASE1: no hop and no trivial crossing
 ENTER integrator.F
 STEP NUMBER                  =          142
 CPU TIME [s]                 =    7.4834344908595085E-002  0.60857207043478456     

 *******************************************************************************
 ENSEMBLE TYPE                =                                              NVE
 STEP NUMBER                  =                                              142
 TIME [fs]                    =                                        14.200000
 CONSERVED QUANTITY [hartree] =                               0.485850471386E+01

                                              INSTANTANEOUS             AVERAGES
 CPU TIME [s]                 =                        0.07                 0.61
 ENERGY DRIFT PER ATOM [K]    =          0.521964854745E-01   0.296323230939E-02
 POTENTIAL ENERGY[hartree]    =          0.255662220216E+01   0.238723960755E+01
 KINETIC ENERGY [hartree]     =          0.230188251171E+01   0.247112463102E+01
 TEMPERATURE [K]              =                     539.026              578.657
 *******************************************************************************

 FOBSH| *** OFF-DIAGONAL GRADIENT CALCULATION
 FOBSH| Put former active state           1 in new active state           1
 RANDOM_NUMBER_HOPPING_PROBA  0.65660685430612087     
 FOBSH| ACTIVE STATE =            1

 ENERGY| Total FORCE_EVAL ( MIXED ) energy (a.u.):             2.574418617895931

 FOBSH| CASE1: no hop and no trivial crossing
 ENTER integrator.F
 STEP NUMBER                  =          143
 CPU TIME [s]                 =    7.4914633296430111E-002  0.60484020024500584     

 *******************************************************************************
 ENSEMBLE TYPE                =                                              NVE
 STEP NUMBER                  =                                              143
 TIME [fs]                    =                                        14.300000
 CONSERVED QUANTITY [hartree] =                               0.485851959008E+01

                                              INSTANTANEOUS             AVERAGES
 CPU TIME [s]                 =                        0.07                 0.60
 ENERGY DRIFT PER ATOM [K]    =          0.574159664715E-01   0.334402066017E-02
 POTENTIAL ENERGY[hartree]    =          0.257441861790E+01   0.238854855168E+01
 KINETIC ENERGY [hartree]     =          0.228410097219E+01   0.246981677326E+01
 TEMPERATURE [K]              =                     534.862              578.350
 *******************************************************************************

 FOBSH| *** OFF-DIAGONAL GRADIENT CALCULATION
 FOBSH| Put former active state           1 in new active state           1
 RANDOM_NUMBER_HOPPING_PROBA  0.14303911750953097     
 FOBSH| ACTIVE STATE =            1

 ENERGY| Total FORCE_EVAL ( MIXED ) energy (a.u.):             2.589857468928803

 FOBSH| CASE1: no hop and no trivial crossing
 ENTER integrator.F
 STEP NUMBER                  =          144
 CPU TIME [s]                 =    7.5211010873317719E-002  0.60116221976325790     

 *******************************************************************************
 ENSEMBLE TYPE                =                                              NVE
 STEP NUMBER                  =                                              144
 TIME [fs]                    =                                        14.400000
 CONSERVED QUANTITY [hartree] =                               0.485853242458E+01

                                              INSTANTANEOUS             AVERAGES
 CPU TIME [s]                 =                        0.08                 0.60
 ENERGY DRIFT PER ATOM [K]    =          0.619190886818E-01   0.375079196588E-02
 POTENTIAL ENERGY[hartree]    =          0.258985746893E+01   0.238994653027E+01
 KINETIC ENERGY [hartree]     =          0.226867495566E+01   0.246841995508E+01
 TEMPERATURE [K]              =                     531.250              578.023
 *******************************************************************************

 FOBSH| *** OFF-DIAGONAL GRADIENT CALCULATION
 FOBSH| Put former active state           1 in new active state           1
 RANDOM_NUMBER_HOPPING_PROBA  0.80954269957376690     
 FOBSH| ACTIVE STATE =            1

 ENERGY| Total FORCE_EVAL ( MIXED ) energy (a.u.):             2.602729310290204

 FOBSH| CASE1: no hop and no trivial crossing
 ENTER integrator.F
 STEP NUMBER                  =          145
 CPU TIME [s]                 =    7.5127789750695229E-002  0.59753439610799886     

 *******************************************************************************
 ENSEMBLE TYPE                =                                              NVE
 STEP NUMBER                  =                                              145
 TIME [fs]                    =                                        14.500000
 CONSERVED QUANTITY [hartree] =                               0.485854305022E+01

                                              INSTANTANEOUS             AVERAGES
 CPU TIME [s]                 =                        0.08                 0.60
 ENERGY DRIFT PER ATOM [K]    =          0.656472081079E-01   0.417766380134E-02
 POTENTIAL ENERGY[hartree]    =          0.260272931029E+01   0.239141399772E+01
 KINETIC ENERGY [hartree]     =          0.225581373993E+01   0.246695370533E+01
 TEMPERATURE [K]              =                     528.238              577.680
 *******************************************************************************

 FOBSH| *** OFF-DIAGONAL GRADIENT CALCULATION
 FOBSH| Put former active state           1 in new active state           1
 RANDOM_NUMBER_HOPPING_PROBA  0.66740105203805000     
 FOBSH| ACTIVE STATE =            1

 ENERGY| Total FORCE_EVAL ( MIXED ) energy (a.u.):             2.612860210567247

 FOBSH| CASE1: no hop and no trivial crossing
 ENTER integrator.F
 STEP NUMBER                  =          146
 CPU TIME [s]                 =    7.4712775647640228E-002  0.59395342610484569     

 *******************************************************************************
 ENSEMBLE TYPE                =                                              NVE
 STEP NUMBER                  =                                              146
 TIME [fs]                    =                                        14.600000
 CONSERVED QUANTITY [hartree] =                               0.485855132122E+01

                                              INSTANTANEOUS             AVERAGES
 CPU TIME [s]                 =                        0.07                 0.59
 ENERGY DRIFT PER ATOM [K]    =          0.685491758518E-01   0.461856456881E-02
 POTENTIAL ENERGY[hartree]    =          0.261286021057E+01   0.239293075260E+01
 KINETIC ENERGY [hartree]     =          0.224569111065E+01   0.246543820810E+01
[...]
 KINETIC ENERGY [hartree]     =          0.237423091967E+01   0.246728621277E+01
 TEMPERATURE [K]              =                     555.967              577.758
 *******************************************************************************

 FOBSH| *** OFF-DIAGONAL GRADIENT CALCULATION
 FOBSH| New map:            1           2           3           4           5           0           0           8
 FOBSH! New map again:           1           2           3           4           5           0           0           8
 FOBSH| Put former active state           1 in new active state           1
 RANDOM_NUMBER_HOPPING_PROBA  0.57056239775311646     
 FOBSH| ACTIVE STATE =            1

 ENERGY| Total FORCE_EVAL ( MIXED ) energy (a.u.):             2.515023467564995

 FOBSH| CASE1: no hop and no trivial crossing
 ENTER integrator.F
 STEP NUMBER                  =          191
 CPU TIME [s]                 =    7.4011608026921749E-002  0.47201169237368945     

 *******************************************************************************
 ENSEMBLE TYPE                =                                              NVE
 STEP NUMBER                  =                                              191
 TIME [fs]                    =                                        19.100000
 CONSERVED QUANTITY [hartree] =                               0.485840688248E+01

                                              INSTANTANEOUS             AVERAGES
 CPU TIME [s]                 =                        0.07                 0.47
 ENERGY DRIFT PER ATOM [K]    =          0.178712946611E-01   0.216652242375E-02
 POTENTIAL ENERGY[hartree]    =          0.251502346756E+01   0.239172450031E+01
 KINETIC ENERGY [hartree]     =          0.234338341491E+01   0.246663750702E+01
 TEMPERATURE [K]              =                     548.744              577.606
 *******************************************************************************

 FOBSH| *** OFF-DIAGONAL GRADIENT CALCULATION
 FOBSH| Put former active state           1 in new active state           1
 RANDOM_NUMBER_HOPPING_PROBA  0.48143085118793355     
 FOBSH| ACTIVE STATE =            1

 ENERGY| Total FORCE_EVAL ( MIXED ) energy (a.u.):             2.545404095299218

 FOBSH| CASE1: no hop and no trivial crossing
 ENTER integrator.F
 STEP NUMBER                  =          192
 CPU TIME [s]                 =    7.3741195723414421E-002  0.46993736687030263     

 *******************************************************************************
 ENSEMBLE TYPE                =                                              NVE
 STEP NUMBER                  =                                              192
 TIME [fs]                    =                                        19.200000
 CONSERVED QUANTITY [hartree] =                               0.485843079483E+01

                                              INSTANTANEOUS             AVERAGES
 CPU TIME [s]                 =                        0.07                 0.47
 ENERGY DRIFT PER ATOM [K]    =          0.262612010048E-01   0.229201554136E-02
 POTENTIAL ENERGY[hartree]    =          0.254540409530E+01   0.239252491486E+01
 KINETIC ENERGY [hartree]     =          0.231302669953E+01   0.246583745073E+01
 TEMPERATURE [K]              =                     541.635              577.419
 *******************************************************************************

 FOBSH| *** OFF-DIAGONAL GRADIENT CALCULATION
 FOBSH| Put former active state           1 in new active state           1
 RANDOM_NUMBER_HOPPING_PROBA  0.54920255863902445     
 FOBSH| ACTIVE STATE =            1

 ENERGY| Total FORCE_EVAL ( MIXED ) energy (a.u.):             2.574915727465185

 FOBSH| CASE1: no hop and no trivial crossing
 ENTER integrator.F
 STEP NUMBER                  =          193
 CPU TIME [s]                 =    7.3816342279314995E-002  0.46788492632838041     

 *******************************************************************************
 ENSEMBLE TYPE                =                                              NVE
 STEP NUMBER                  =                                              193
 TIME [fs]                    =                                        19.300000
 CONSERVED QUANTITY [hartree] =                               0.485845416431E+01

                                              INSTANTANEOUS             AVERAGES
 CPU TIME [s]                 =                        0.07                 0.47
 ENERGY DRIFT PER ATOM [K]    =          0.344606326428E-01   0.245869231391E-02
 POTENTIAL ENERGY[hartree]    =          0.257491572747E+01   0.239346994498E+01
 KINETIC ENERGY [hartree]     =          0.228353843685E+01   0.246489289626E+01
 TEMPERATURE [K]              =                     534.730              577.197
 *******************************************************************************

 FOBSH| *** OFF-DIAGONAL GRADIENT CALCULATION
 FOBSH| Put former active state           1 in new active state           1
 RANDOM_NUMBER_HOPPING_PROBA  0.20974162817612726     
 FOBSH| ACTIVE STATE =            1

 ENERGY| Total FORCE_EVAL ( MIXED ) energy (a.u.):             2.603188926408366

 FOBSH| CASE1: no hop and no trivial crossing
 ENTER integrator.F
 STEP NUMBER                  =          194
 CPU TIME [s]                 =    7.4520749039947987E-002  0.46585727592998644     

 *******************************************************************************
 ENSEMBLE TYPE                =                                              NVE
 STEP NUMBER                  =                                              194
 TIME [fs]                    =                                        19.400000
 CONSERVED QUANTITY [hartree] =                               0.485847670305E+01

                                              INSTANTANEOUS             AVERAGES
 CPU TIME [s]                 =                        0.07                 0.47
 ENERGY DRIFT PER ATOM [K]    =          0.423685925248E-01   0.266441344902E-02
 POTENTIAL ENERGY[hartree]    =          0.260318892641E+01   0.239455097066E+01
 KINETIC ENERGY [hartree]     =          0.225528777665E+01   0.246381245750E+01
 TEMPERATURE [K]              =                     528.115              576.944
 *******************************************************************************

 FOBSH| *** OFF-DIAGONAL GRADIENT CALCULATION
 FOBSH| Put former active state           1 in new active state           1
 RANDOM_NUMBER_HOPPING_PROBA  0.45487766261551388     
 FOBSH| ACTIVE STATE =            1

 ENERGY| Total FORCE_EVAL ( MIXED ) energy (a.u.):             2.629867419828597

 FOBSH| CASE1: no hop and no trivial crossing
 ENTER integrator.F
 STEP NUMBER                  =          195
 CPU TIME [s]                 =    7.4204117991030216E-002  0.46384879819696617     

 *******************************************************************************
 ENSEMBLE TYPE                =                                              NVE
 STEP NUMBER                  =                                              195
 TIME [fs]                    =                                        19.500000
 CONSERVED QUANTITY [hartree] =                               0.485849813678E+01

                                              INSTANTANEOUS             AVERAGES
 CPU TIME [s]                 =                        0.07                 0.46
 ENERGY DRIFT PER ATOM [K]    =          0.498888458327E-01   0.290659002534E-02
 POTENTIAL ENERGY[hartree]    =          0.262986741983E+01   0.239575772168E+01
 KINETIC ENERGY [hartree]     =          0.222863071695E+01   0.246260639729E+01
 TEMPERATURE [K]              =                     521.873              576.662
 *******************************************************************************

 FOBSH| *** OFF-DIAGONAL GRADIENT CALCULATION
 FOBSH| Put former active state           1 in new active state           1
 RANDOM_NUMBER_HOPPING_PROBA  0.96993616915930148     
 FOBSH| ACTIVE STATE =            1

 ENERGY| Total FORCE_EVAL ( MIXED ) energy (a.u.):             2.654612560676001

 FOBSH| CASE1: no hop and no trivial crossing
 ENTER integrator.F
 STEP NUMBER                  =          196
 CPU TIME [s]                 =    7.4156845919787884E-002  0.46186057395065400     

 *******************************************************************************
 ENSEMBLE TYPE                =                                              NVE
 STEP NUMBER                  =                                              196
 TIME [fs]                    =                                        19.600000
 CONSERVED QUANTITY [hartree] =                               0.485851818547E+01

                                              INSTANTANEOUS             AVERAGES
 CPU TIME [s]                 =                        0.07                 0.46
 ENERGY DRIFT PER ATOM [K]    =          0.569231422469E-01   0.318218467954E-02
 POTENTIAL ENERGY[hartree]    =          0.265461256068E+01   0.239707840963E+01
 KINETIC ENERGY [hartree]     =          0.220390562479E+01   0.246128649539E+01
 TEMPERATURE [K]              =                     516.083              576.353
 *******************************************************************************

 FOBSH| *** OFF-DIAGONAL GRADIENT CALCULATION
 FOBSH| Put former active state           1 in new active state           1
 RANDOM_NUMBER_HOPPING_PROBA   9.6172822640265138E-002
 FOBSH| ACTIVE STATE =            1

 ENERGY| Total FORCE_EVAL ( MIXED ) energy (a.u.):             2.677107604942761

 FOBSH| CASE1: no hop and no trivial crossing
 ENTER integrator.F
 STEP NUMBER                  =          197
 CPU TIME [s]                 =    7.4097791686654091E-002  0.45989223495439002     

 *******************************************************************************
 ENSEMBLE TYPE                =                                              NVE
 STEP NUMBER                  =                                              197
 TIME [fs]                    =                                        19.700000
 CONSERVED QUANTITY [hartree] =                               0.485853660836E+01

                                              INSTANTANEOUS             AVERAGES
 CPU TIME [s]                 =                        0.07                 0.46
 ENERGY DRIFT PER ATOM [K]    =          0.633870101747E-01   0.348779293078E-02
 POTENTIAL ENERGY[hartree]    =          0.267710760494E+01   0.239849987763E+01
 KINETIC ENERGY [hartree]     =          0.218142900341E+01   0.245986589898E+01
 TEMPERATURE [K]              =                     510.819              576.020
 *******************************************************************************

 FOBSH| *** OFF-DIAGONAL GRADIENT CALCULATION
 FOBSH| Put former active state           1 in new active state           1
 RANDOM_NUMBER_HOPPING_PROBA  0.78072515651370233     
 FOBSH| ACTIVE STATE =            1

 ENERGY| Total FORCE_EVAL ( MIXED ) energy (a.u.):             2.697061660349191

 FOBSH| CASE1: no hop and no trivial crossing
 ENTER integrator.F
 STEP NUMBER                  =          198
 CPU TIME [s]                 =    7.4206075631082058E-002  0.45794432505881782     

 *******************************************************************************
 ENSEMBLE TYPE                =                                              NVE
 STEP NUMBER                  =                                              198
 TIME [fs]                    =                                        19.800000
 CONSERVED QUANTITY [hartree] =                               0.485855317345E+01

                                              INSTANTANEOUS             AVERAGES
 CPU TIME [s]                 =                        0.07                 0.46
 ENERGY DRIFT PER ATOM [K]    =          0.691990513997E-01   0.381966797355E-02
 POTENTIAL ENERGY[hartree]    =          0.269706166035E+01   0.240000776542E+01
 KINETIC ENERGY [hartree]     =          0.216149151310E+01   0.245835895764E+01
 TEMPERATURE [K]              =                     506.151              575.667
 *******************************************************************************

 FOBSH| *** OFF-DIAGONAL GRADIENT CALCULATION
 FOBSH| Put former active state           1 in new active state           1
 RANDOM_NUMBER_HOPPING_PROBA  0.47093887719215982     
 FOBSH| ACTIVE STATE =            1

 ENERGY| Total FORCE_EVAL ( MIXED ) energy (a.u.):             2.714213390788557

 FOBSH| CASE1: no hop and no trivial crossing
 ENTER integrator.F
 STEP NUMBER                  =          199
 CPU TIME [s]                 =    7.4574294500052929E-002  0.45601784249319588     

 *******************************************************************************
 ENSEMBLE TYPE                =                                              NVE
 STEP NUMBER                  =                                              199
 TIME [fs]                    =                                        19.900000
 CONSERVED QUANTITY [hartree] =                               0.485856767881E+01

                                              INSTANTANEOUS             AVERAGES
 CPU TIME [s]                 =                        0.07                 0.46
 ENERGY DRIFT PER ATOM [K]    =          0.742884131883E-01   0.417378227111E-02
 POTENTIAL ENERGY[hartree]    =          0.271421339079E+01   0.240158668816E+01
 KINETIC ENERGY [hartree]     =          0.214435428803E+01   0.245678104473E+01
 TEMPERATURE [K]              =                     502.138              575.298
 *******************************************************************************

 FOBSH| *** OFF-DIAGONAL GRADIENT CALCULATION
 FOBSH| Put former active state           1 in new active state           1
 RANDOM_NUMBER_HOPPING_PROBA  0.44547775286700875     
 FOBSH| ACTIVE STATE =            1

 ENERGY| Total FORCE_EVAL ( MIXED ) energy (a.u.):             2.728334258300761

 FOBSH| CASE1: no hop and no trivial crossing
 ENTER integrator.F
 STEP NUMBER                  =          200
 CPU TIME [s]                 =    7.4010721407830715E-002  0.45410780688776903     

 *******************************************************************************
 ENSEMBLE TYPE                =                                              NVE
 STEP NUMBER                  =                                              200
 TIME [fs]                    =                                        20.000000
 CONSERVED QUANTITY [hartree] =                               0.485857993886E+01

                                              INSTANTANEOUS             AVERAGES
 CPU TIME [s]                 =                        0.07                 0.45
 ENERGY DRIFT PER ATOM [K]    =          0.785899802909E-01   0.454586326121E-02
 POTENTIAL ENERGY[hartree]    =          0.272833425830E+01   0.240322042601E+01
 KINETIC ENERGY [hartree]     =          0.213024568056E+01   0.245514836791E+01
 TEMPERATURE [K]              =                     498.834              574.916
 *******************************************************************************


 -------------------------------------------------------------------------------
 -                                                                             -
 -                                DBCSR STATISTICS                             -
 -                                                                             -
 -------------------------------------------------------------------------------
 COUNTER                                    TOTAL       BLAS       SMM       ACC
 flops total                                    0       0.0%      0.0%      0.0%
 flops max/rank                                 0       0.0%      0.0%      0.0%
 matmuls inhomo. stacks                         0       0.0%      0.0%      0.0%
 matmuls total                                  0       0.0%      0.0%      0.0%
 number of processed stacks                     0       0.0%      0.0%      0.0%
 average stack size                                     0.0       0.0       0.0
 marketing flops                     0.000000E+00
 -------------------------------------------------------------------------------

 MEMORY| Estimated peak process memory [MiB]                                 123

 -------------------------------------------------------------------------------
 -                                                                             -
 -                           R E F E R E N C E S                               -
 -                                                                             -
 -------------------------------------------------------------------------------
 
 CP2K version 4.0 (Development Version), the CP2K developers group (2015).
 CP2K is freely available from https://www.cp2k.org/ .

 Borstnik, U; VandeVondele, J; Weber, V; Hutter, J. 
 PARALLEL COMPUTING, 40 (5-6), 47-58 (2014). 
 Sparse matrix multiplication: The distributed block-compressed sparse
 row library.
 http://dx.doi.org/10.1016/j.parco.2014.03.012


 Hutter, J; Iannuzzi, M; Schiffmann, F; VandeVondele, J. 
 WILEY INTERDISCIPLINARY REVIEWS-COMPUTATIONAL MOLECULAR SCIENCE, 4 (1), 15-25 (2014). 
 CP2K: atomistic simulations of condensed matter systems.
 http://dx.doi.org/10.1002/wcms.1159


 Frigo, M; Johnson, SG. 
 PROCEEDINGS OF THE IEEE, 93 (2), 216-231 (2005). 
 The design and implementation of FFTW3.
 http://dx.doi.org/10.1109/JPROC.2004.840301


 -------------------------------------------------------------------------------
 -                                                                             -
 -                                T I M I N G                                  -
 -                                                                             -
 -------------------------------------------------------------------------------
 SUBROUTINE                       CALLS  ASD         SELF TIME        TOTAL TIME
                                MAXIMUM       AVERAGE  MAXIMUM  AVERAGE  MAXIMUM
 CP2K                                 1  1.0    0.031    0.031   82.175   82.175
 qs_mol_dyn_low                       1  2.0   13.749   13.749   72.942   72.942
 parser_read_line               2346106  3.0   18.674   18.674   56.511   56.511
 parser_read_line_low              2509  4.3   37.816   37.816   37.837   37.837
 topology_control                     3  4.0    0.005    0.005    8.517    8.517
 connectivity_control                 3  5.0    0.006    0.006    8.146    8.146
 read_topology_psf                  150  6.0    3.548    3.548    8.131    8.131
 velocity_verlet                    100  3.0    5.298    5.298    7.355    7.355
 fist_create_force_env                2  2.0    0.000    0.000    6.608    6.608
 fist_init                            2  3.0    0.002    0.002    6.608    6.608
 mixed_create_force_env               1  2.0    0.001    0.001    2.584    2.584
 mixed_init                           1  3.0    0.000    0.000    2.583    2.583
 fist_calc_energy_force             204  4.0    0.009    0.009    2.393    2.393
 force_nonbond                      102  5.0    1.691    1.691    1.691    1.691
 -------------------------------------------------------------------------------

 The number of warnings for this run is : 2
 
 -------------------------------------------------------------------------------
  **** **** ******  **  PROGRAM ENDED AT                 2021-02-12 16:44:59.169
 ***** ** ***  *** **   PROGRAM RAN ON                   bulstake.phys.ucl.ac.uk
 **    ****   ******    PROGRAM RAN BY                                 sgiannini
 ***** **    ** ** **   PROGRAM PROCESS ID                                  3533
  **** **  *******  **  PROGRAM STOPPED IN /scratch/sgiannini/FOB-SH-REGTESTS_/3
                                           3-XXX_code_extension_V2/run-fssh-MTS1
                                           _RESTART
