     248
 i =   396000, time =   198000.000, E =         0.3359472830
  C        -0.3705483167        0.4592425545        2.5113604931
  C        -0.8575133951        0.9673229463        1.2592485406
  C        -0.3477164222        0.4384796557        0.0982434005
  C        -0.8533274754        0.9294619390       -1.0999340446
  C         0.6228557115       -0.4968855563        2.6374531615
  H        -0.8236520650        0.8099691516        3.4042827111
  H        -1.5473288103        1.7726751332        1.1229588176
  H        -1.5948053708        1.7090997637       -0.9545943744
  H         1.1160905785       -0.9980714423        3.5095856589
  C         0.6663046577       -0.6140364507        0.1649903091
  C        -0.3240529628        0.4667494304       -2.3716973073
  C         1.0941441257       -1.0671257854        1.4176682819
  C         1.2093141557       -0.9491938223       -1.1435063394
  C         0.5543757217       -0.5597876954       -2.3289723633
  H        -0.8136872914        0.7221402990       -3.3191417928
  H         1.9482507728       -1.7201681703        1.4457918434
  H         1.9274548098       -1.7806298158       -1.3220290142
  H         0.9644065603       -0.9137982122       -3.2991588922
  C         5.0102968446       -0.8373810587        2.4177389830
  C         4.8773504996       -1.5004011548        1.2213537132
  C         5.0604764457       -0.7669078305        0.0080762019
  C         4.9264391440       -1.4587194004       -1.2701841245
  C         5.2409356840        0.5152972293        2.4978293961
  H         4.8824680103       -1.3455176631        3.3586144974
  H         4.8216234523       -2.5805984158        1.2224763282
  H         4.8338965932       -2.5571401574       -1.2984518107
  H         5.3060049387        1.1040954345        3.4667506560
  C         5.4512610166        0.5994664955        0.0561112227
  C         5.1249073947       -0.6796241314       -2.4123246332
  C         5.5128037140        1.2355951144        1.3233225774
  C         5.6429190820        1.3999715029       -1.0767292363
  C         5.4063957281        0.7121519142       -2.3120524572
  H         5.0248544613       -1.1115286239       -3.4220194828
  H         5.7408195559        2.2949060942        1.3614679677
  H         5.6442203683        2.4790910664       -1.0180546838
  H         5.6659482180        1.1336775303       -3.2948076726
  C        10.1442612503       -0.7640232529        2.4393638692
  C        10.6349386387       -1.3105270668        1.2136339291
  C        10.3004212291       -0.6413772379       -0.0013198458
  C        10.5614357307       -1.2794265108       -1.3062236706
  C         9.4325409434        0.4275303287        2.5481964288
  H        10.3649555275       -1.3068573020        3.3675819635
  H        11.1977090939       -2.2839181937        1.2779411219
  H        11.0642690412       -2.2681479917       -1.4733193652
  H         9.3275958505        0.9431704000        3.5149761177
  C         9.6182819888        0.5960924725        0.0847549946
  C        10.3120232692       -0.4571840807       -2.4148715692
  C         9.1754849497        1.1052550929        1.3622517858
  C         9.4044379106        1.3750002780       -1.1018011183
  C         9.6932615462        0.8366298739       -2.3327645227
  H        10.7206564086       -0.8106216597       -3.3763432943
  H         8.8031917360        2.0859620753        1.4880365689
  H         8.8112195351        2.3689773002       -1.0602688565
  H         9.4832732371        1.3898535786       -3.1128793524
  C        15.8402925827       -0.6034174782        3.5257775740
  C        16.3887311992       -0.8744505543        2.2382208733
  C        15.6568741667       -0.5772785712        1.0602417714
  C        16.2274401568       -0.9175172404       -0.1762142636
  C        14.4142362722        0.0981143726        1.1215712244
  C        13.8644248639        0.3307583936        2.4065629829
  C        14.6011743389        0.0238552545        3.6053353687
  H        16.3713511837       -0.7924784915        4.4646932905
  H        17.4070223003       -1.0898948537        2.1318777970
  H        17.1010416466       -1.5453280328       -0.1966190302
  H        12.7834744878        0.6377873964        2.3955579575
  H        14.2626648887        0.2571019176        4.5686126211
  C        15.6717201468       -0.4690301449       -1.4314994145
  C        13.7621998340        0.4552244695       -0.1204966139
  C        14.3867974628        0.1943324593       -1.3583618286
  C        16.1955581512       -0.9115775393       -2.6510459099
  H        12.7201328344        0.8716209515       -0.1399768894
  C        13.7576858891        0.4857889731       -2.5472919683
  C        15.5145983361       -0.5956092248       -3.8863156394
  H        17.0570938257       -1.5014869964       -2.6637435815
  C        14.3298997450        0.0998296842       -3.8219222226
  H        12.8975096325        1.1490647788       -2.5334948449
  H        15.9497557783       -0.9057524032       -4.8105575776
  H        13.8232469313        0.4640468152       -4.7787878088
  C        20.2005595792       -0.6116300612        3.6661300008
  C        20.6014642107       -1.3027943579        2.4989217059
  C        20.3054250804       -0.7641163006        1.2202635520
  C        20.7368028562       -1.4401684812       -0.0318281629
  C        19.7448688104        0.5000784141        1.1637823034
  C        19.3371287707        1.1909961167        2.2934313433
  C        19.5446904772        0.6112827447        3.5593730975
  H        20.4321084194       -1.0057983760        4.6894193246
  H        21.1860485311       -2.2064629255        2.6337925914
  H        21.0573073070       -2.4518551209       -0.1144430541
  H        18.9245956497        2.2400178108        2.2323392664
  H        19.2742565332        1.1578693178        4.4645999721
  C        20.4873901195       -0.7570677281       -1.2253787433
  C        19.4797752667        1.0762361307       -0.0704392957
  C        19.8648632373        0.4923402954       -1.2881567039
  C        20.8097604215       -1.4283482103       -2.4499390881
  H        19.1307858320        2.0563156899       -0.1276282608
  C        19.5240265645        1.0963713524       -2.5178538449
  C        20.3557430132       -0.8514262079       -3.6953575296
  H        21.2586730131       -2.3974610249       -2.5367720338
  C        19.7496842363        0.4138716880       -3.6795419585
  H        19.1209301863        2.1299526526       -2.5314707999
  H        20.4889758617       -1.3088475389       -4.5817890309
  H        19.3231308161        0.8378695826       -4.5833895820
  C        25.1457574708       -0.6284071793        3.8362693743
  C        25.7536631778       -1.2109719534        2.6650414341
  C        25.2789161082       -0.7723379789        1.3785546984
  C        25.7828810919       -1.3076317649        0.1770573145
  C        24.3053451372        0.2899343188        1.3489397867
  C        23.6429076037        0.8051477748        2.5284224733
  C        24.0986633350        0.3642963356        3.8085106414
  H        25.5072133027       -1.0635276763        4.8379052775
  H        26.4648158708       -1.9850200797        2.8124195715
  H        26.5052177499       -2.1327513496        0.2500253631
  H        22.9212530565        1.6937945789        2.5003473991
  H        23.6927222521        0.7101708089        4.8166230381
  C        25.4005949029       -0.7759089220       -1.0760747589
  C        23.9779847349        0.7979405195        0.1156482885
  C        24.4585750772        0.3108260820       -1.1238394615
  C        25.8532870239       -1.3384844582       -2.3268343704
  H        23.1975134547        1.6087810231       -0.0401137410
  C        24.0920782030        0.8168123216       -2.3573822083
  C        25.5289068245       -0.7496099266       -3.5357772124
  H        26.4738731663       -2.1537350781       -2.2645107825
  C        24.6549300289        0.3206616896       -3.5543534022
  H        23.3492757490        1.5445316263       -2.4858968653
  H        26.0199630518       -1.0947810141       -4.4384652042
  H        24.2391622460        0.6857840653       -4.4903305312
 Ne       -28.8971353874     -317.7874681011     -169.3590069333
 Ne      -299.4265829026      161.7941804228      -57.6602136955
 Ne      -254.1822876945     -216.3770905451      -16.6938370882
 Ne      -372.4027539903     -105.4170037233      -62.2862294657
 Ne       255.8647930754     -247.5559423939      -41.1112101894
 Ne       -92.3632528280        1.7980045167     -272.4738005798
 Ne      -439.6727167688      328.9982615294     -424.0026019027
 Ne       -28.2328646694     -153.8647619456     -159.9207227640
 Ne       174.9075621480       28.7240339706      292.2618120873
 Ne      -162.9954634578      142.6439798663      -45.1740211159
 Ne      -413.1163698023       65.4716042404      281.4408843495
 Ne        -8.5175497836     -229.5296479974     -148.9781776701
 Ne       142.2983882688      -55.1705396571      209.3493849621
 Ne       107.6589851228     -246.1252209191       89.4057068843
 Ne        44.7558462622      190.1213130880      166.4869447229
 Ne      -202.3746760445      -99.6676989053     -260.7045198611
 Ne      -187.1279377260      216.3903224803      189.2466249904
 Ne         7.8454725326        3.0538012277     -148.2883740303
 Ne      -330.3775703433     -122.9373542670        8.7681576899
 Ne       -88.2331221339      -28.2848477222       55.1068704703
 Ne       337.7022866392      255.3067203592      280.7540056780
 Ne       475.1446753196       45.7203775648      273.1534232802
 Ne      -353.5374572240     -203.5214827399     -138.3436431352
 Ne       -96.0402599822       17.8620120931      133.3226901359
 Ne      -388.8077898223      253.0002673929       38.6998344568
 Ne      -207.3247737217     -241.6803397454      -34.9537063337
 Ne       -11.4170733214     -139.0247538265       25.5757775925
 Ne      -220.7184880527      -25.0287851362      208.5952409703
 Ne       272.8224947023     -110.6846084969       91.6523655462
 Ne        46.4231688679      -99.2336206609     -217.1080462867
 Ne      -255.4679949899     -348.6653829650      -92.9375425116
 Ne        61.7331819744     -349.0729610787      128.4227878605
 Ne      -215.0930282276       46.1163091066      318.9826522415
 Ne        49.3144104834     -164.2541202534     -491.0200382848
 Ne       -95.1202230949      -14.6961846574     -139.1794545858
 Ne      -375.4726651415      131.0073244645      544.2164644016
 Ne      -131.0152664882     -188.1942198408        0.6306214814
 Ne       232.7406384261     -272.2599046312     -364.5279400565
 Ne      -248.7758819668      -85.5148282369     -162.0373102500
 Ne       467.3288562615      345.8948237811      117.6833484604
 Ne       -28.1433436857       50.6929762095      198.0400817560
 Ne      -194.2263963129      -76.1665863260      -71.1841251545
 Ne      -118.0420326165     -278.1872138700     -292.7138055422
 Ne       -43.9427955117     -156.5635466140      243.8491769167
 Ne       497.5354337797       23.5834545859      189.7432324143
 Ne      -263.0208190519      224.7884500285      108.2183453976
 Ne      -397.9901354231     -118.6604744154      388.2752316392
 Ne       458.9322161811      438.1378702322     -169.6715734720
 Ne       -68.7820996705     -191.3220120203      431.4845914997
 Ne       603.0650079654      149.0887257595      257.9628330355
 Ne       -85.2242457469     -106.6516141196     -310.1335570749
 Ne       137.4942751225      246.2878108921     -230.1595782556
 Ne       115.4225380392     -214.5693593496      236.7247398740
 Ne      -624.9627794817      408.0176782363     -607.0628659824
 Ne       -30.3260802132       52.6748757948      -82.9427666880
 Ne      -197.6844230342      -17.9698296824     -397.8199669522
 Ne        99.9421050012       87.8981045748     -135.6674998116
 Ne        44.3845531855      -27.3131586743     -270.3365655230
 Ne      -388.4080096156      142.3799825642     -544.9485788815
 Ne       168.7565428559      140.3538846141      -95.2057404552
 Ne       130.3604622622     -234.3231484301     -130.0955142816
 Ne       131.5560195244      515.9537295123      438.4143767313
 Ne       -84.0867117146       89.5730944414     -133.3535105996
 Ne        99.9998127944     -245.7587175617      -52.2909836148
 Ne       367.4654817952       49.6681996370     -407.4037040945
 Ne      -185.1506812371       50.2824364110      -15.4812939915
 Ne        16.6714003180     -323.7591517954       10.3814722405
 Ne      -148.0450258806      -54.0034059312       45.3166453340
 Ne       -21.2463084637      111.4826584290     -305.9550983872
 Ne        27.5367568687      121.9025920109       48.1217729625
 Ne        90.1417540575     -177.4425634576      -79.3804055614
 Ne      -191.1431038516     -156.7830451723      315.2243278781
 Ne      -530.8722533947      435.6959412041      103.3349488694
 Ne       338.5033895285      207.8081562613       40.7225449605
 Ne      -229.4914332862      -28.9025069017      -50.2644910769
 Ne      -123.4724900573      504.0777564855     -406.1263453686
 Ne       -98.3101563428      -64.1186253996      -35.6722620137
 Ne      -160.7599185182     -226.6338530600     -388.7761418100
 Ne       -62.7227553087     -110.1136533956     -195.0957151017
 Ne      -223.5846893381      166.5884127151     -112.4643808317
 Ne      -132.2946245964      473.7362555313     -237.0587014866
 Ne       163.4944473997      193.2709525039      378.3573777096
 Ne      -153.0077229657      158.1220805707        1.4678699587
 Ne        11.4664019521      189.4127712177      576.0601444958
 Ne        25.5780012393       34.1022926562     -498.3176050889
 Ne       131.5963240067      -41.2801854048     -161.2738724185
 Ne       -21.5816592219      202.7224190587      -11.4922872276
 Ne       -55.8669203156      171.4714404040     -177.8194838877
 Ne        58.6656496453       72.8156909340       96.8647543232
 Ne       147.9358620896      116.9083199574      550.9703333398
 Ne       364.6994462463      248.5728649357     -166.8432228664
 Ne       198.8498496776        9.1473154000       93.8620916631
 Ne      -232.6474510313      215.4047765953     -348.9055860697
 Ne       -33.6581294225      -24.7181985246       30.6258086332
 Ne      -213.2901693185     -261.0401961294      158.7708100514
 Ne       493.6742907191      -44.4054642808      206.6519529300
 Ne      -177.2356691862      229.2811153716     -355.2742205107
 Ne        59.1549253580      -45.5566299132     -455.2001090816
 Ne        27.4669567552      225.9190763919       29.9042210434
 Ne       -73.5427557708      -51.3521507094      203.7075520154
 Ne      -185.9252759647      253.2362694220      211.1948334118
 Ne       201.1418587963       99.4018763776      -36.0943264536
 Ne       217.7720013210      130.5025831917     -164.0292809380
 Ne      -183.9770447625     -172.2392835828     -327.1236621318
 Ne       -20.5067263447      145.0592762820      156.2798931471
 Ne      -336.6685254629      105.5885691873     -188.6469855765
 Ne       279.8007333002      100.2096464845      -78.2037387631
 Ne      -437.2255551884       -8.6494472156      -67.8369595198
 Ne        23.4304066963      193.0998526782     -231.8901262521
 Ne       649.1099599031       89.5650073344       17.0154302126
 Ne       257.6208558621      112.9273299089      -22.4592428912
 Ne       -50.8696637218     -191.5357693758      225.6295414936
 Ne        55.5436779374     -690.5748046904     -198.8985794692
 Ne      -175.1034738354      570.5862739042     -129.7694554144
 Ne      -503.0240182917      -85.1023403884     -311.3689512450
 Ne       -30.9436170590      180.5687269992     -178.7792211643
 Ne      -192.9367710760      -52.6411189824      278.4262147592
 Ne      -114.0677754527      287.0223335196       38.9785103168
 Ne       230.2616053535       75.2346920339      -45.4235668220
 Ne      -272.3422845477     -324.0565938626     -140.5395555288
 Ne       101.9549985281      120.7789122817      330.1367114573
 Ne      -290.8169350653     -113.5371573517      -31.5294833505
