 DBCSR| Multiplication driver                                               XSMM
 DBCSR| Multrec recursion limit                                              512
 DBCSR| Multiplication stack size                                           1000
 DBCSR| Maximum elements for images                                    UNLIMITED
 DBCSR| Randmat seed                                                    12341313
 DBCSR| Multiplication size stacks                                             3


  **** **** ******  **  PROGRAM STARTED AT               2021-01-14 05:47:13.923
 ***** ** ***  *** **   PROGRAM STARTED ON               bulstake.phys.ucl.ac.uk
 **    ****   ******    PROGRAM STARTED BY                             sgiannini
 ***** **    ** ** **   PROGRAM PROCESS ID                                 12730
  **** **  *******  **  PROGRAM STARTED IN /scratch/sgiannini/FOB-SH-REGTESTS_/3
                                           2-XXXX_code_extension_V2/run-fssh-MTS
                                           1_NFF_FROZEN_C_FIRST_OFF

 CP2K| version string:                    CP2K version 4.0 (Development Version)
 CP2K| source code revision number:                                  git:3649ac3
 CP2K| cp2kflags: libint fftw3 libxc quip smm_dnn smm libxsmm libderiv_max_am1=5
 CP2K|             libint_max_am=6
 CP2K| is freely available from                            https://www.cp2k.org/
 CP2K| Program compiled at                          Wed  6 Jan 14:38:30 GMT 2021
 CP2K| Program compiled on                               bulstake.phys.ucl.ac.uk
 CP2K| Program compiled for                                                local
 CP2K| Data directory path           /scratch/sgiannini/flavoured-cptk/cp2k/data
 CP2K| Input file name                                                   run.inp

 GLOBAL| Force Environment number                                              1
 GLOBAL| Basis set file name                                           POTENTIAL
 GLOBAL| MM Potential file name                                     MM_POTENTIAL
 GLOBAL| Coordinate file name                                       pos-init.xyz
 GLOBAL| Force Environment number                                              2
 GLOBAL| Basis set file name                                           POTENTIAL
 GLOBAL| MM Potential file name                                     MM_POTENTIAL
 GLOBAL| Coordinate file name                                       pos-init.xyz
 GLOBAL| Force Environment number                                              3
 GLOBAL| Basis set file name                                           POTENTIAL
 GLOBAL| MM Potential file name                                     MM_POTENTIAL
 GLOBAL| Coordinate file name                                       pos-init.xyz
 GLOBAL| Force Environment number                                              4
 GLOBAL| Basis set file name                                           POTENTIAL
 GLOBAL| MM Potential file name                                     MM_POTENTIAL
 GLOBAL| Coordinate file name                                       pos-init.xyz
 GLOBAL| Force Environment number                                              5
 GLOBAL| Basis set file name                                           POTENTIAL
 GLOBAL| MM Potential file name                                     MM_POTENTIAL
 GLOBAL| Coordinate file name                                       pos-init.xyz
 GLOBAL| Force Environment number                                              6
 GLOBAL| Basis set file name                                           POTENTIAL
 GLOBAL| MM Potential file name                                     MM_POTENTIAL
 GLOBAL| Coordinate file name                                       pos-init.xyz
 GLOBAL| Force Environment number                                              7
 GLOBAL| Basis set file name                                           POTENTIAL
 GLOBAL| MM Potential file name                                     MM_POTENTIAL
 GLOBAL| Coordinate file name                                       pos-init.xyz
 GLOBAL| Force Environment number                                              8
 GLOBAL| Basis set file name                                           POTENTIAL
 GLOBAL| MM Potential file name                                     MM_POTENTIAL
 GLOBAL| Coordinate file name                                       pos-init.xyz
 GLOBAL| Force Environment number                                              9
 GLOBAL| Basis set file name                                           POTENTIAL
 GLOBAL| MM Potential file name                                     MM_POTENTIAL
 GLOBAL| Coordinate file name                                       pos-init.xyz
 GLOBAL| Force Environment number                                             10
 GLOBAL| Basis set file name                                           POTENTIAL
 GLOBAL| MM Potential file name                                     MM_POTENTIAL
 GLOBAL| Coordinate file name                                       pos-init.xyz
 GLOBAL| Method name                                                        CP2K
 GLOBAL| Project name                                                        run
 GLOBAL| Preferred FFT library                                             FFTW3
 GLOBAL| Preferred diagonalization lib.                                       SL
 GLOBAL| Run type                                                             MD
 GLOBAL| All-to-all communication in single precision                          F
 GLOBAL| FFTs using library dependent lengths                                  F
 GLOBAL| Global print level                                                  LOW
 GLOBAL| Total number of message passing processes                             1
 GLOBAL| Number of threads for this process                                    1
 GLOBAL| This output is from process                                           0
 GLOBAL| CPU model name :  Intel(R) Xeon(R) CPU E5-2687W v4 @ 3.00GHz

 MEMORY| system memory details [Kb]
 MEMORY|                        rank 0           min           max       average
 MEMORY| MemTotal             65894336      65894336      65894336      65894336
 MEMORY| MemFree                927356        927356        927356        927356
 MEMORY| Buffers                  8744          8744          8744          8744
 MEMORY| Cached               55012380      55012380      55012380      55012380
 MEMORY| Slab                  1947760       1947760       1947760       1947760
 MEMORY| SReclaimable          1698944       1698944       1698944       1698944
 MEMORY| MemLikelyFree        57647424      57647424      57647424      57647424

 TOTAL NUMBER OF FORCE EVALS          10
 NOTE:n_subforce_eval           9
 DECOMP =  F
 DECOMP =  F
 DECOMP =  F
 DECOMP =  F
 DECOMP =  F
 DECOMP =  F
 DECOMP =  F
 DECOMP =  F
 DECOMP =  F

 MD| Molecular Dynamics Protocol 
 MD| Ensemble Type                                                           NVE
 MD| Number of Time Steps                                                    200
 MD| Time Step [fs]                                                         0.10
 MD| Temperature [K]                                                      400.00
 MD| Temperature tolerance [K]                                              0.00
 MD| Print MD information every                                        1 step(s)
 MD| File type     Print frequency[steps]                             File names
 MD| Coordinates          200                                      run-pos-1.xyz
 MD| Velocities             1                                      run-vel-1.xyz
 MD| Energies               1                                         run-1.ener
 MD| Dump                 200                                      run-1.restart

 ROT| Rotational Analysis Info 
 ROT| Principal axes and moments of inertia in atomic units:
 ROT|                                1                 2                 3
 ROT| EIGENVALUES            0.319196005E+10   0.583971964E+10   0.882037602E+10
 ROT|      X                     0.997631408       0.066105605       0.019016393
 ROT|      Y                     0.066118536      -0.997811774      -0.000051363
 ROT|      Z                    -0.018971385      -0.001308578       0.999819171
 ROT| Numer of Rotovibrational vectors:     6

 Calculation of degrees of freedom
                                                      Number of atoms:       900
                                 Number of Intramolecular constraints:         0
                                 Number of Intermolecular constraints:         0
                                  Invariants(translation + rotations):         3
                                                   Degrees of freedom:      2697


 Restraints Information
                                  Number of Intramolecular restraints:         0
                                  Number of Intermolecular restraints:         0

 *** WARNING in motion/thermostat/thermostat_methods.F:280 :: Thermostat ***
 *** for Particles has been defined but the ensemble provided does not   ***
 *** support thermostat for Particles! Ignoring thermostat input.        ***

 ************************** Velocities initialization **************************
 Initial Temperature                                                    564.84 K
 COM velocity:           -0.000000000004     -0.000000000000      0.000000000001
 *******************************************************************************

 FIRST CALL: force_env_calc_energy_force
 RESTART_KEY F
 FOBSH| ACTIVE STATE =            3

 ENERGY| Total FORCE_EVAL ( MIXED ) energy (a.u.):             2.446981654967434

 STEP NUMBER                  =            0
 CPU TIME [s]                 =    0.0000000000000000        0.0000000000000000     

 MD_ENERGIES| Initialization proceeding


 ******************************** GO CP2K GO! **********************************
 INITIAL POTENTIAL ENERGY[hartree]     =                      0.244698165497E+01
 INITIAL KINETIC ENERGY[hartree]       =                      0.241212372912E+01
 INITIAL TEMPERATURE[K]                =                                 564.841
 INITIAL VOLUME[bohr^3]                =                      0.580604601118E+05
 INITIAL CELL LNTHS[bohr]   =      0.7651501E+02   0.5624770E+02   0.1634991E+02
 INITIAL CELL ANGLS[deg]    =      0.9000000E+02   0.1244000E+03   0.9000000E+02
 ******************************** GO CP2K GO! **********************************
 FOBSH| New map:            1           2           0           0           5           6           7           8
 FOBSH! New map again:           1           2           0           0           5           6           7           8
 FOBSH| Put former active state           3 in new active state           3
 FOBSH| *** WARNING: difference between exact flux and sum of Tully's proba is   2.4918102643691133      ***
 RANDOM_NUMBER_HOPPING_PROBA  0.52706805747704488     
 FOBSH| ATTEMPTED_HOP
 FOBSH| ACTIVE STATE =            3

 ENERGY| Total FORCE_EVAL ( MIXED ) energy (a.u.):             2.418359458280365

 FOBSH| Active state before the attempt to hop:           3

 ENERGY| Total FORCE_EVAL ( MIXED ) energy (a.u.):             2.418407460049028

 FOBSH| Active state after the attempt to hop:           4
 FOBSH| Possible trivial crossing
 FOBSH| CASE5: successful hop and maybe a crossing, final overlap is :  0.46010487901263208     
 FOBSH| We were localized on molecule           1
 FOBSH| And now on molecule           1
 ENTER integrator.F
 STEP NUMBER                  =            1
 CPU TIME [s]                 =   0.25471732579171658       0.25471732579171658     

 *******************************************************************************
 ENSEMBLE TYPE                =                                              NVE
 STEP NUMBER                  =                                                1
 TIME [fs]                    =                                         0.100000
 CONSERVED QUANTITY [hartree] =                               0.485908240475E+01

                                              INSTANTANEOUS             AVERAGES
 CPU TIME [s]                 =                        0.25                 0.25
 ENERGY DRIFT PER ATOM [K]    =         -0.806254754217E-02   0.000000000000E+00
 POTENTIAL ENERGY[hartree]    =          0.241840746005E+01   0.241840746005E+01
 KINETIC ENERGY [hartree]     =          0.244067494470E+01   0.244067494470E+01
 TEMPERATURE [K]              =                     571.526              571.526
 *******************************************************************************

 FOBSH| Put former active state           4 in new active state           4
 RANDOM_NUMBER_HOPPING_PROBA  0.66567659016249958     
 FOBSH| ACTIVE STATE =            4

 ENERGY| Total FORCE_EVAL ( MIXED ) energy (a.u.):             2.391190327971922

 FOBSH| CASE1: no hop and no trivial crossing
 ENTER integrator.F
 STEP NUMBER                  =            2
 CPU TIME [s]                 =    4.2190259322524071E-002  0.14845379255712032     

 *******************************************************************************
 ENSEMBLE TYPE                =                                              NVE
 STEP NUMBER                  =                                                2
 TIME [fs]                    =                                         0.200000
 CONSERVED QUANTITY [hartree] =                               0.485906295350E+01

                                              INSTANTANEOUS             AVERAGES
 CPU TIME [s]                 =                        0.04                 0.15
 ENERGY DRIFT PER ATOM [K]    =         -0.148872270418E-01  -0.744361352088E-02
 POTENTIAL ENERGY[hartree]    =          0.239119032797E+01   0.240479889401E+01
 KINETIC ENERGY [hartree]     =          0.246787262553E+01   0.245427378512E+01
 TEMPERATURE [K]              =                     577.895              574.711
 *******************************************************************************

 FOBSH| Put former active state           4 in new active state           4
 RANDOM_NUMBER_HOPPING_PROBA  0.62850201519402193     
 FOBSH| ACTIVE STATE =            4

 ENERGY| Total FORCE_EVAL ( MIXED ) energy (a.u.):             2.365679810480123

 FOBSH| CASE1: no hop and no trivial crossing
 ENTER integrator.F
 STEP NUMBER                  =            3
 CPU TIME [s]                 =    4.7137897927314043E-002  0.11468182768051823     

 *******************************************************************************
 ENSEMBLE TYPE                =                                              NVE
 STEP NUMBER                  =                                                3
 TIME [fs]                    =                                         0.300000
 CONSERVED QUANTITY [hartree] =                               0.485904385691E+01

                                              INSTANTANEOUS             AVERAGES
 CPU TIME [s]                 =                        0.05                 0.11
 ENERGY DRIFT PER ATOM [K]    =         -0.215874705947E-01  -0.121582325455E-01
 POTENTIAL ENERGY[hartree]    =          0.236567981048E+01   0.239175919950E+01
 KINETIC ENERGY [hartree]     =          0.249336404643E+01   0.246730387222E+01
 TEMPERATURE [K]              =                     583.864              577.762
 *******************************************************************************

 FOBSH| Put former active state           4 in new active state           4
 RANDOM_NUMBER_HOPPING_PROBA  0.19697258807027210     
 FOBSH| ACTIVE STATE =            4

 ENERGY| Total FORCE_EVAL ( MIXED ) energy (a.u.):             2.342178573273688

 FOBSH| CASE1: no hop and no trivial crossing
 ENTER integrator.F
 STEP NUMBER                  =            4
 CPU TIME [s]                 =    4.3216969817876816E-002   9.6815613214857876E-002

 *******************************************************************************
 ENSEMBLE TYPE                =                                              NVE
 STEP NUMBER                  =                                                4
 TIME [fs]                    =                                         0.400000
 CONSERVED QUANTITY [hartree] =                               0.485902650987E+01

                                              INSTANTANEOUS             AVERAGES
 CPU TIME [s]                 =                        0.04                 0.10
 ENERGY DRIFT PER ATOM [K]    =         -0.276738657275E-01  -0.160371408410E-01
 POTENTIAL ENERGY[hartree]    =          0.234217857327E+01   0.237936404294E+01
 KINETIC ENERGY [hartree]     =          0.251684793660E+01   0.247968988832E+01
 TEMPERATURE [K]              =                     589.364              580.662
 *******************************************************************************

 FOBSH| Put former active state           4 in new active state           4
 RANDOM_NUMBER_HOPPING_PROBA  0.62364035814935215     
 FOBSH| ACTIVE STATE =            4

 ENERGY| Total FORCE_EVAL ( MIXED ) energy (a.u.):             2.320961778436552

 FOBSH| CASE1: no hop and no trivial crossing
 ENTER integrator.F
 STEP NUMBER                  =            5
 CPU TIME [s]                 =    4.5997899025678635E-002   8.6652070377022036E-002

 *******************************************************************************
 ENSEMBLE TYPE                =                                              NVE
 STEP NUMBER                  =                                                5
 TIME [fs]                    =                                         0.500000
 CONSERVED QUANTITY [hartree] =                               0.485901120533E+01

                                              INSTANTANEOUS             AVERAGES
 CPU TIME [s]                 =                        0.05                 0.09
 ENERGY DRIFT PER ATOM [K]    =         -0.330436276230E-01  -0.194384381974E-01
 POTENTIAL ENERGY[hartree]    =          0.232096177844E+01   0.236768359004E+01
 KINETIC ENERGY [hartree]     =          0.253804942689E+01   0.249136179603E+01
 TEMPERATURE [K]              =                     594.328              583.396
 *******************************************************************************

 FOBSH| Put former active state           4 in new active state           4
 RANDOM_NUMBER_HOPPING_PROBA  0.71780466621354477     
 FOBSH| ACTIVE STATE =            4

 ENERGY| Total FORCE_EVAL ( MIXED ) energy (a.u.):             2.302271837292780

 FOBSH| CASE1: no hop and no trivial crossing
 ENTER integrator.F
 STEP NUMBER                  =            6
 CPU TIME [s]                 =    4.4698243960738182E-002   7.9659765974308058E-002

 *******************************************************************************
 ENSEMBLE TYPE                =                                              NVE
 STEP NUMBER                  =                                                6
 TIME [fs]                    =                                         0.600000
 CONSERVED QUANTITY [hartree] =                               0.485899813438E+01

                                              INSTANTANEOUS             AVERAGES
 CPU TIME [s]                 =                        0.04                 0.08
 ENERGY DRIFT PER ATOM [K]    =         -0.376297101077E-01  -0.224703168491E-01
 POTENTIAL ENERGY[hartree]    =          0.230227183729E+01   0.235678163125E+01
 KINETIC ENERGY [hartree]     =          0.255672629709E+01   0.250225587954E+01
 TEMPERATURE [K]              =                     598.702              585.947
 *******************************************************************************

 FOBSH| Put former active state           4 in new active state           4
 RANDOM_NUMBER_HOPPING_PROBA  0.16418834476526262     
 FOBSH| ACTIVE STATE =            4

 ENERGY| Total FORCE_EVAL ( MIXED ) energy (a.u.):             2.286315181087831

 FOBSH| CASE1: no hop and no trivial crossing
 ENTER integrator.F
 STEP NUMBER                  =            7
 CPU TIME [s]                 =    4.5183752197772264E-002   7.4734621149088645E-002

 *******************************************************************************
 ENSEMBLE TYPE                =                                              NVE
 STEP NUMBER                  =                                                7
 TIME [fs]                    =                                         0.700000
 CONSERVED QUANTITY [hartree] =                               0.485898748367E+01

                                              INSTANTANEOUS             AVERAGES
 CPU TIME [s]                 =                        0.05                 0.07
 ENERGY DRIFT PER ATOM [K]    =         -0.413666282213E-01  -0.251697899023E-01
 POTENTIAL ENERGY[hartree]    =          0.228631518109E+01   0.234671499551E+01
 KINETIC ENERGY [hartree]     =          0.257267230258E+01   0.251231536855E+01
 TEMPERATURE [K]              =                     602.436              588.302
 *******************************************************************************

 FOBSH| Put former active state           4 in new active state           4
 RANDOM_NUMBER_HOPPING_PROBA  0.13146703861307912     
 FOBSH| ACTIVE STATE =            4

 ENERGY| Total FORCE_EVAL ( MIXED ) energy (a.u.):             2.273259559570021

 FOBSH| CASE1: no hop and no trivial crossing
 ENTER integrator.F
 STEP NUMBER                  =            8
 CPU TIME [s]                 =    4.3561984784901142E-002   7.0838041603565202E-002

 *******************************************************************************
 ENSEMBLE TYPE                =                                              NVE
 STEP NUMBER                  =                                                8
 TIME [fs]                    =                                         0.800000
 CONSERVED QUANTITY [hartree] =                               0.485897936823E+01

                                              INSTANTANEOUS             AVERAGES
 CPU TIME [s]                 =                        0.04                 0.07
 ENERGY DRIFT PER ATOM [K]    =         -0.442140156103E-01  -0.275503181158E-01
 POTENTIAL ENERGY[hartree]    =          0.227325955957E+01   0.233753306602E+01
 KINETIC ENERGY [hartree]     =          0.258571980866E+01   0.252149092356E+01
 TEMPERATURE [K]              =                     605.491              590.451
 *******************************************************************************

 FOBSH| Put former active state           4 in new active state           4
 RANDOM_NUMBER_HOPPING_PROBA  0.51288349360222152     
 FOBSH| ACTIVE STATE =            4

 ENERGY| Total FORCE_EVAL ( MIXED ) energy (a.u.):             2.263232002606005

 FOBSH| CASE1: no hop and no trivial crossing
 ENTER integrator.F
 STEP NUMBER                  =            9
 CPU TIME [s]                 =    4.4470279943197966E-002   6.7908290307968841E-002

 *******************************************************************************
 ENSEMBLE TYPE                =                                              NVE
 STEP NUMBER                  =                                                9
 TIME [fs]                    =                                         0.900000
 CONSERVED QUANTITY [hartree] =                               0.485897389846E+01

                                              INSTANTANEOUS             AVERAGES
 CPU TIME [s]                 =                        0.04                 0.07
 ENERGY DRIFT PER ATOM [K]    =         -0.461331439870E-01  -0.296150765459E-01
 POTENTIAL ENERGY[hartree]    =          0.226323200261E+01   0.232927739231E+01
 KINETIC ENERGY [hartree]     =          0.259574189585E+01   0.252974103159E+01
 TEMPERATURE [K]              =                     607.838              592.383
 *******************************************************************************

 FOBSH| Put former active state           4 in new active state           4
 RANDOM_NUMBER_HOPPING_PROBA  0.31200530121501135     
 FOBSH| ACTIVE STATE =            4

 ENERGY| Total FORCE_EVAL ( MIXED ) energy (a.u.):             2.256317218840453

 FOBSH| CASE1: no hop and no trivial crossing
 ENTER integrator.F
 STEP NUMBER                  =           10
 CPU TIME [s]                 =    4.4527139980345964E-002   6.5570175275206560E-002

 *******************************************************************************
 ENSEMBLE TYPE                =                                              NVE
 STEP NUMBER                  =                                               10
 TIME [fs]                    =                                         1.000000
 CONSERVED QUANTITY [hartree] =                               0.485897112701E+01

                                              INSTANTANEOUS             AVERAGES
 CPU TIME [s]                 =                        0.04                 0.07
 ENERGY DRIFT PER ATOM [K]    =         -0.471055345948E-01  -0.313641223508E-01
 POTENTIAL ENERGY[hartree]    =          0.225631721884E+01   0.232198137496E+01
 KINETIC ENERGY [hartree]     =          0.260265390817E+01   0.253703231925E+01
 TEMPERATURE [K]              =                     609.457              594.090
 *******************************************************************************

 FOBSH| Put former active state           4 in new active state           4
 RANDOM_NUMBER_HOPPING_PROBA  0.33142058177280265     
 FOBSH| ACTIVE STATE =            4

 ENERGY| Total FORCE_EVAL ( MIXED ) energy (a.u.):             2.252556640703820

 FOBSH| CASE1: no hop and no trivial crossing
 ENTER integrator.F
 STEP NUMBER                  =           11
 CPU TIME [s]                 =    4.3547424022108316E-002   6.3568106979470365E-002

 *******************************************************************************
 ENSEMBLE TYPE                =                                              NVE
 STEP NUMBER                  =                                               11
 TIME [fs]                    =                                         1.100000
 CONSERVED QUANTITY [hartree] =                               0.485897109161E+01

                                              INSTANTANEOUS             AVERAGES
 CPU TIME [s]                 =                        0.04                 0.06
 ENERGY DRIFT PER ATOM [K]    =         -0.471179566250E-01  -0.327962891030E-01
 POTENTIAL ENERGY[hartree]    =          0.225255664070E+01   0.231567003548E+01
 KINETIC ENERGY [hartree]     =          0.260641445091E+01   0.254333978577E+01
 TEMPERATURE [K]              =                     610.337              595.567
 *******************************************************************************

 FOBSH| Put former active state           4 in new active state           4
 RANDOM_NUMBER_HOPPING_PROBA  0.27413217002048423     
 FOBSH| ACTIVE STATE =            4

 ENERGY| Total FORCE_EVAL ( MIXED ) energy (a.u.):             2.251947957613000

 FOBSH| CASE1: no hop and no trivial crossing
 ENTER integrator.F
 STEP NUMBER                  =           12
 CPU TIME [s]                 =    4.4800307136029005E-002   6.2004123659183577E-002

 *******************************************************************************
 ENSEMBLE TYPE                =                                              NVE
 STEP NUMBER                  =                                               12
 TIME [fs]                    =                                         1.200000
 CONSERVED QUANTITY [hartree] =                               0.485897375848E+01

                                              INSTANTANEOUS             AVERAGES
 CPU TIME [s]                 =                        0.04                 0.06
 ENERGY DRIFT PER ATOM [K]    =         -0.461822551250E-01  -0.339117862715E-01
 POTENTIAL ENERGY[hartree]    =          0.225194795761E+01   0.231035986233E+01
 KINETIC ENERGY [hartree]     =          0.260702580087E+01   0.254864695369E+01
 TEMPERATURE [K]              =                     610.480              596.810
 *******************************************************************************

 FOBSH| Put former active state           4 in new active state           4
 RANDOM_NUMBER_HOPPING_PROBA  0.87583701013915671     
 FOBSH| ACTIVE STATE =            4

 ENERGY| Total FORCE_EVAL ( MIXED ) energy (a.u.):             2.254445401656621

 FOBSH| CASE1: no hop and no trivial crossing
 ENTER integrator.F
 STEP NUMBER                  =           13
 CPU TIME [s]                 =    4.1849682107567787E-002   6.0453782001366987E-002

 *******************************************************************************
 ENSEMBLE TYPE                =                                              NVE
 STEP NUMBER                  =                                               13
 TIME [fs]                    =                                         1.300000
 CONSERVED QUANTITY [hartree] =                               0.485897909983E+01

                                              INSTANTANEOUS             AVERAGES
 CPU TIME [s]                 =                        0.04                 0.06
 ENERGY DRIFT PER ATOM [K]    =         -0.443081883592E-01  -0.347115095090E-01
 POTENTIAL ENERGY[hartree]    =          0.225444540166E+01   0.230605874997E+01
 KINETIC ENERGY [hartree]     =          0.260453369817E+01   0.255294593404E+01
 TEMPERATURE [K]              =                     609.897              597.817
 *******************************************************************************

 FOBSH| Put former active state           4 in new active state           4
 RANDOM_NUMBER_HOPPING_PROBA  0.53722623939231462     
 FOBSH| ACTIVE STATE =            4

 ENERGY| Total FORCE_EVAL ( MIXED ) energy (a.u.):             2.259960406375585

 FOBSH| CASE1: no hop and no trivial crossing
 ENTER integrator.F
 STEP NUMBER                  =           14
 CPU TIME [s]                 =    4.5808102004230022E-002   5.9407662001571493E-002

 *******************************************************************************
 ENSEMBLE TYPE                =                                              NVE
 STEP NUMBER                  =                                               14
 TIME [fs]                    =                                         1.400000
 CONSERVED QUANTITY [hartree] =                               0.485898702773E+01

                                              INSTANTANEOUS             AVERAGES
 CPU TIME [s]                 =                        0.05                 0.06
 ENERGY DRIFT PER ATOM [K]    =         -0.415265968045E-01  -0.351983014587E-01
 POTENTIAL ENERGY[hartree]    =          0.225996040638E+01   0.230276601114E+01
 KINETIC ENERGY [hartree]     =          0.259902662136E+01   0.255623741170E+01
 TEMPERATURE [K]              =                     608.607              598.587
 *******************************************************************************

 FOBSH| Put former active state           4 in new active state           4
 RANDOM_NUMBER_HOPPING_PROBA  0.51392675957101541     
 FOBSH| ACTIVE STATE =            4

 ENERGY| Total FORCE_EVAL ( MIXED ) energy (a.u.):             2.268362914602448

 FOBSH| CASE1: no hop and no trivial crossing
 ENTER integrator.F
 STEP NUMBER                  =           15
 CPU TIME [s]                 =    7.1741702035069466E-002   6.0229931337138026E-002

 *******************************************************************************
 ENSEMBLE TYPE                =                                              NVE
 STEP NUMBER                  =                                               15
 TIME [fs]                    =                                         1.500000
 CONSERVED QUANTITY [hartree] =                               0.485899743919E+01

                                              INSTANTANEOUS             AVERAGES
 CPU TIME [s]                 =                        0.07                 0.06
 ENERGY DRIFT PER ATOM [K]    =         -0.378736247193E-01  -0.353766563427E-01
 POTENTIAL ENERGY[hartree]    =          0.226836291460E+01   0.230047247137E+01
 KINETIC ENERGY [hartree]     =          0.259063452459E+01   0.255853055256E+01
 TEMPERATURE [K]              =                     606.642              599.124
 *******************************************************************************

 FOBSH| Put former active state           4 in new active state           4
 RANDOM_NUMBER_HOPPING_PROBA  0.46440041474888250     
 FOBSH| ACTIVE STATE =            4

 ENERGY| Total FORCE_EVAL ( MIXED ) energy (a.u.):             2.279483157867185

 FOBSH| CASE1: no hop and no trivial crossing
 ENTER integrator.F
 STEP NUMBER                  =           16
 CPU TIME [s]                 =    4.6893307007849216E-002   5.9396392316557474E-002

 *******************************************************************************
 ENSEMBLE TYPE                =                                              NVE
 STEP NUMBER                  =                                               16
 TIME [fs]                    =                                         1.600000
 CONSERVED QUANTITY [hartree] =                               0.485901017081E+01

                                              INSTANTANEOUS             AVERAGES
 CPU TIME [s]                 =                        0.05                 0.06
 ENERGY DRIFT PER ATOM [K]    =         -0.334065998624E-01  -0.352535278127E-01
 POTENTIAL ENERGY[hartree]    =          0.227948315787E+01   0.229916063928E+01
 KINETIC ENERGY [hartree]     =          0.257952701294E+01   0.255984283133E+01
 TEMPERATURE [K]              =                     604.041              599.432
 *******************************************************************************

 FOBSH| Put former active state           4 in new active state           4
 RANDOM_NUMBER_HOPPING_PROBA  0.33981241161957892     
 FOBSH| ACTIVE STATE =            4

 ENERGY| Total FORCE_EVAL ( MIXED ) energy (a.u.):             2.293114134381478

 FOBSH| CASE1: no hop and no trivial crossing
 ENTER integrator.F
 STEP NUMBER                  =           17
 CPU TIME [s]                 =    4.9999927636235952E-002   5.8843659100067967E-002

 *******************************************************************************
 ENSEMBLE TYPE                =                                              NVE
 STEP NUMBER                  =                                               17
 TIME [fs]                    =                                         1.700000
 CONSERVED QUANTITY [hartree] =                               0.485902504897E+01

                                              INSTANTANEOUS             AVERAGES
 CPU TIME [s]                 =                        0.05                 0.06
 ENERGY DRIFT PER ATOM [K]    =         -0.281864395004E-01  -0.348378167355E-01
 POTENTIAL ENERGY[hartree]    =          0.229311413438E+01   0.229880496252E+01
 KINETIC ENERGY [hartree]     =          0.256591091459E+01   0.256019977741E+01
 TEMPERATURE [K]              =                     600.853              599.515
 *******************************************************************************

 FOBSH| Put former active state           4 in new active state           4
 RANDOM_NUMBER_HOPPING_PROBA  0.68305462949801310     
 FOBSH| ACTIVE STATE =            4

 ENERGY| Total FORCE_EVAL ( MIXED ) energy (a.u.):             2.309014459155300

 FOBSH| CASE1: no hop and no trivial crossing
 ENTER integrator.F
 STEP NUMBER                  =           18
 CPU TIME [s]                 =    8.5016002412885427E-002   6.0297678173002266E-002

 *******************************************************************************
 ENSEMBLE TYPE                =                                              NVE
 STEP NUMBER                  =                                               18
 TIME [fs]                    =                                         1.800000
 CONSERVED QUANTITY [hartree] =                               0.485904186865E+01

                                              INSTANTANEOUS             AVERAGES
 CPU TIME [s]                 =                        0.09                 0.06
 ENERGY DRIFT PER ATOM [K]    =         -0.222850739743E-01  -0.341404421377E-01
 POTENTIAL ENERGY[hartree]    =          0.230901445916E+01   0.229937215678E+01
 KINETIC ENERGY [hartree]     =          0.255002740949E+01   0.255963464586E+01
 TEMPERATURE [K]              =                     597.133              599.383
 *******************************************************************************

 FOBSH! Reorgering: for state           7  we stay in with overlap -0.68546496103315346       instead of goind to            8 with overlap  0.72801172636516054     
 FOBSH! Reorgering: for state           8  we stay in with overlap -0.68540693497736049       instead of goind to            7 with overlap -0.72808810727277562     
 FOBSH| New map:            1           2           3           4           5           6           0           0
 FOBSH! New map again:           1           2           3           4           5           6           0           0
 FOBSH| Put former active state           4 in new active state           4
 RANDOM_NUMBER_HOPPING_PROBA  0.89266899010984935     
 FOBSH| ACTIVE STATE =            4

 ENERGY| Total FORCE_EVAL ( MIXED ) energy (a.u.):             2.326911647890928

 FOBSH| CASE1: no hop and no trivial crossing
 ENTER integrator.F
 STEP NUMBER                  =           19
 CPU TIME [s]                 =    4.8367729876190424E-002   5.9669786157380590E-002

 *******************************************************************************
 ENSEMBLE TYPE                =                                              NVE
 STEP NUMBER                  =                                               19
 TIME [fs]                    =                                         1.900000
 CONSERVED QUANTITY [hartree] =                               0.485906040395E+01

                                              INSTANTANEOUS             AVERAGES
 CPU TIME [s]                 =                        0.05                 0.06
 ENERGY DRIFT PER ATOM [K]    =         -0.157817650972E-01  -0.331741959777E-01
 POTENTIAL ENERGY[hartree]    =          0.232691164789E+01   0.230082160368E+01
 KINETIC ENERGY [hartree]     =          0.253214875606E+01   0.255818802008E+01
 TEMPERATURE [K]              =                     592.947              599.044
 *******************************************************************************

 FOBSH| New map:            1           2           3           4           5           6           0           0
 FOBSH! New map again:           1           2           3           4           5           6           0           0
 FOBSH| Put former active state           4 in new active state           4
 RANDOM_NUMBER_HOPPING_PROBA  0.37393966498306264     
 FOBSH| ACTIVE STATE =            4

 ENERGY| Total FORCE_EVAL ( MIXED ) energy (a.u.):             2.346505790125124

 FOBSH| CASE1: no hop and no trivial crossing
 ENTER integrator.F
 STEP NUMBER                  =           20
 CPU TIME [s]                 =    5.0168413668870926E-002   5.9194717532955111E-002

 *******************************************************************************
 ENSEMBLE TYPE                =                                              NVE
 STEP NUMBER                  =                                               20
 TIME [fs]                    =                                         2.000000
 CONSERVED QUANTITY [hartree] =                               0.485908038887E+01

                                              INSTANTANEOUS             AVERAGES
 CPU TIME [s]                 =                        0.05                 0.06
 ENERGY DRIFT PER ATOM [K]    =         -0.876984310699E-02  -0.319539783341E-01
 POTENTIAL ENERGY[hartree]    =          0.234650579013E+01   0.230310581300E+01
 KINETIC ENERGY [hartree]     =          0.251257459874E+01   0.255590734901E+01
 TEMPERATURE [K]              =                     588.363              598.510
 *******************************************************************************

 FOBSH| Put former active state           4 in new active state           4
 RANDOM_NUMBER_HOPPING_PROBA  0.29483768654201153     
 FOBSH| ACTIVE STATE =            4

 ENERGY| Total FORCE_EVAL ( MIXED ) energy (a.u.):             2.367473696043836

 FOBSH| CASE1: no hop and no trivial crossing
 ENTER integrator.F
 STEP NUMBER                  =           21
 CPU TIME [s]                 =    4.8480508383363485E-002   5.8684517097260268E-002

 *******************************************************************************
 ENSEMBLE TYPE                =                                              NVE
 STEP NUMBER                  =                                               21
 TIME [fs]                    =                                         2.100000
 CONSERVED QUANTITY [hartree] =                               0.485910155178E+01

                                              INSTANTANEOUS             AVERAGES
 CPU TIME [s]                 =                        0.05                 0.06
 ENERGY DRIFT PER ATOM [K]    =         -0.134460803175E-02  -0.304963892721E-01
 POTENTIAL ENERGY[hartree]    =          0.236747369604E+01   0.230617095029E+01
 KINETIC ENERGY [hartree]     =          0.249162785573E+01   0.255284642076E+01
 TEMPERATURE [K]              =                     583.458              597.793
 *******************************************************************************

 FOBSH| Put former active state           4 in new active state           4
 RANDOM_NUMBER_HOPPING_PROBA  0.16126713006374499     
 FOBSH| ACTIVE STATE =            4

 ENERGY| Total FORCE_EVAL ( MIXED ) energy (a.u.):             2.389473303145751

 FOBSH| CASE1: no hop and no trivial crossing
 ENTER integrator.F
 STEP NUMBER                  =           22
 CPU TIME [s]                 =    4.7542942687869072E-002   5.8178081896833399E-002

 *******************************************************************************
 ENSEMBLE TYPE                =                                              NVE
 STEP NUMBER                  =                                               22
 TIME [fs]                    =                                         2.200000
 CONSERVED QUANTITY [hartree] =                               0.485912360440E+01

                                              INSTANTANEOUS             AVERAGES
 CPU TIME [s]                 =                        0.05                 0.06
 ENERGY DRIFT PER ATOM [K]    =          0.639278951776E-02  -0.288196084180E-01
 POTENTIAL ENERGY[hartree]    =          0.238947330315E+01   0.230995742087E+01
 KINETIC ENERGY [hartree]     =          0.246965030125E+01   0.254906477896E+01
 TEMPERATURE [K]              =                     578.311              596.908
 *******************************************************************************

 FOBSH| Put former active state           4 in new active state           4
 RANDOM_NUMBER_HOPPING_PROBA  0.99880020244755841     
 FOBSH| ACTIVE STATE =            4

 ENERGY| Total FORCE_EVAL ( MIXED ) energy (a.u.):             2.412148306690105

 FOBSH| CASE1: no hop and no trivial crossing
 ENTER integrator.F
 STEP NUMBER                  =           23
 CPU TIME [s]                 =    6.2751704361289740E-002   5.8376935047461935E-002

 *******************************************************************************
 ENSEMBLE TYPE                =                                              NVE
 STEP NUMBER                  =                                               23
 TIME [fs]                    =                                         2.300000
 CONSERVED QUANTITY [hartree] =                               0.485914626047E+01

                                              INSTANTANEOUS             AVERAGES
 CPU TIME [s]                 =                        0.06                 0.06
 ENERGY DRIFT PER ATOM [K]    =          0.143419162991E-01  -0.269430203868E-01
 POTENTIAL ENERGY[hartree]    =          0.241214830669E+01   0.231440050286E+01
 KINETIC ENERGY [hartree]     =          0.244699795378E+01   0.254462709091E+01
 TEMPERATURE [K]              =                     573.007              595.869
 *******************************************************************************

 FOBSH| Put former active state           4 in new active state           4
 RANDOM_NUMBER_HOPPING_PROBA   4.6356293755143212E-002
 FOBSH| ACTIVE STATE =            4

 ENERGY| Total FORCE_EVAL ( MIXED ) energy (a.u.):             2.435132910667680

 FOBSH| CASE1: no hop and no trivial crossing
 ENTER integrator.F
 STEP NUMBER                  =           24
 CPU TIME [s]                 =    7.1517306845635176E-002   5.8924450539052486E-002

 *******************************************************************************
 ENSEMBLE TYPE                =                                              NVE
 STEP NUMBER                  =                                               24
 TIME [fs]                    =                                         2.400000
 CONSERVED QUANTITY [hartree] =                               0.485916918884E+01

                                              INSTANTANEOUS             AVERAGES
 CPU TIME [s]                 =                        0.07                 0.06
 ENERGY DRIFT PER ATOM [K]    =          0.223865810348E-01  -0.248876203276E-01
 POTENTIAL ENERGY[hartree]    =          0.243513291067E+01   0.231943101986E+01
 KINETIC ENERGY [hartree]     =          0.242403627818E+01   0.253960247372E+01
 TEMPERATURE [K]              =                     567.630              594.692
 *******************************************************************************

 FOBSH| Put former active state           4 in new active state           4
 RANDOM_NUMBER_HOPPING_PROBA  0.61314907403080898     
 FOBSH| ACTIVE STATE =            4

 ENERGY| Total FORCE_EVAL ( MIXED ) energy (a.u.):             2.458056843961299

 FOBSH| CASE1: no hop and no trivial crossing
 ENTER integrator.F
 STEP NUMBER                  =           25
 CPU TIME [s]                 =    4.7445507720112801E-002   5.8465292826294903E-002

 *******************************************************************************
 ENSEMBLE TYPE                =                                              NVE
 STEP NUMBER                  =                                               25
 TIME [fs]                    =                                         2.500000
 CONSERVED QUANTITY [hartree] =                               0.485919207493E+01

                                              INSTANTANEOUS             AVERAGES
 CPU TIME [s]                 =                        0.05                 0.06
 ENERGY DRIFT PER ATOM [K]    =          0.304164114902E-01  -0.226754590549E-01
 POTENTIAL ENERGY[hartree]    =          0.245805684396E+01   0.232497605282E+01
 KINETIC ENERGY [hartree]     =          0.240113523097E+01   0.253406378401E+01
 TEMPERATURE [K]              =                     562.267              593.395
 *******************************************************************************

 FOBSH| Put former active state           4 in new active state           4
 RANDOM_NUMBER_HOPPING_PROBA  0.74387583549278180     
 FOBSH| ACTIVE STATE =            4

 ENERGY| Total FORCE_EVAL ( MIXED ) energy (a.u.):             2.480550421289757

 FOBSH| CASE1: no hop and no trivial crossing
 ENTER integrator.F
 STEP NUMBER                  =           26
 CPU TIME [s]                 =    4.9942535348236561E-002   5.8137494461754195E-002

 *******************************************************************************
 ENSEMBLE TYPE                =                                              NVE
 STEP NUMBER                  =                                               26
 TIME [fs]                    =                                         2.600000
 CONSERVED QUANTITY [hartree] =                               0.485921460744E+01

                                              INSTANTANEOUS             AVERAGES
 CPU TIME [s]                 =                        0.05                 0.06
 ENERGY DRIFT PER ATOM [K]    =          0.383221821256E-01  -0.203293959326E-01
 POTENTIAL ENERGY[hartree]    =          0.248055042129E+01   0.233095968238E+01
 KINETIC ENERGY [hartree]     =          0.237866418615E+01   0.252808687640E+01
 TEMPERATURE [K]              =                     557.005              591.995
 *******************************************************************************

 FOBSH| Put former active state           4 in new active state           4
 RANDOM_NUMBER_HOPPING_PROBA  0.51449155877675967     
 FOBSH| ACTIVE STATE =            4

 ENERGY| Total FORCE_EVAL ( MIXED ) energy (a.u.):             2.502249548902408

 FOBSH| CASE1: no hop and no trivial crossing
 ENTER integrator.F
 STEP NUMBER                  =           27
 CPU TIME [s]                 =    9.3324479646980762E-002   5.9440716135281103E-002

 *******************************************************************************
 ENSEMBLE TYPE                =                                              NVE
 STEP NUMBER                  =                                               27
 TIME [fs]                    =                                         2.700000
 CONSERVED QUANTITY [hartree] =                               0.485923649066E+01

                                              INSTANTANEOUS             AVERAGES
 CPU TIME [s]                 =                        0.09                 0.06
 ENERGY DRIFT PER ATOM [K]    =          0.460001433494E-01  -0.178727463295E-01
 POTENTIAL ENERGY[hartree]    =          0.250224954890E+01   0.233730375151E+01
 KINETIC ENERGY [hartree]     =          0.235698694175E+01   0.252174984178E+01
 TEMPERATURE [K]              =                     551.929              590.511
 *******************************************************************************

 FOBSH| Put former active state           4 in new active state           4
 RANDOM_NUMBER_HOPPING_PROBA  0.17176330176339644     
 FOBSH| ACTIVE STATE =            4

 ENERGY| Total FORCE_EVAL ( MIXED ) energy (a.u.):             2.522800548132418

 FOBSH| CASE1: no hop and no trivial crossing
 ENTER integrator.F
 STEP NUMBER                  =           28
 CPU TIME [s]                 =    4.7738981433212757E-002   5.9022797038778663E-002

 *******************************************************************************
 ENSEMBLE TYPE                =                                              NVE
 STEP NUMBER                  =                                               28
 TIME [fs]                    =                                         2.800000
 CONSERVED QUANTITY [hartree] =                               0.485925742301E+01

                                              INSTANTANEOUS             AVERAGES
 CPU TIME [s]                 =                        0.05                 0.06
 ENERGY DRIFT PER ATOM [K]    =          0.533444859803E-01  -0.153292737470E-01
 POTENTIAL ENERGY[hartree]    =          0.252280054813E+01   0.234392863710E+01
 KINETIC ENERGY [hartree]     =          0.233645687488E+01   0.251513223582E+01
 TEMPERATURE [K]              =                     547.122              588.962
 *******************************************************************************

 FOBSH| Put former active state           4 in new active state           4
 RANDOM_NUMBER_HOPPING_PROBA  0.49148359434413441     
 FOBSH| ACTIVE STATE =            4

 ENERGY| Total FORCE_EVAL ( MIXED ) energy (a.u.):             2.541864985328810

 FOBSH| CASE1: no hop and no trivial crossing
 ENTER integrator.F
 STEP NUMBER                  =           29
 CPU TIME [s]                 =    5.3107311017811298E-002   5.8818814762193583E-002

 *******************************************************************************
 ENSEMBLE TYPE                =                                              NVE
 STEP NUMBER                  =                                               29
 TIME [fs]                    =                                         2.900000
 CONSERVED QUANTITY [hartree] =                               0.485927711727E+01

                                              INSTANTANEOUS             AVERAGES
 CPU TIME [s]                 =                        0.05                 0.06
 ENERGY DRIFT PER ATOM [K]    =          0.602544260583E-01  -0.127229392710E-01
 POTENTIAL ENERGY[hartree]    =          0.254186498533E+01   0.235075402842E+01
 KINETIC ENERGY [hartree]     =          0.231741213194E+01   0.250831430120E+01
 TEMPERATURE [K]              =                     542.662              587.365
 *******************************************************************************

 FOBSH| Put former active state           4 in new active state           4
 RANDOM_NUMBER_HOPPING_PROBA   1.0672103664790645E-002
 FOBSH| ACTIVE STATE =            4

 ENERGY| Total FORCE_EVAL ( MIXED ) energy (a.u.):             2.559124281367408

 FOBSH| CASE1: no hop and no trivial crossing
 ENTER integrator.F
 STEP NUMBER                  =           30
 CPU TIME [s]                 =    4.7757181804627180E-002   5.8450093663608031E-002

 *******************************************************************************
 ENSEMBLE TYPE                =                                              NVE
 STEP NUMBER                  =                                               30
 TIME [fs]                    =                                         3.000000
 CONSERVED QUANTITY [hartree] =                               0.485929531023E+01

                                              INSTANTANEOUS             AVERAGES
 CPU TIME [s]                 =                        0.05                 0.06
 ENERGY DRIFT PER ATOM [K]    =          0.666376233707E-01  -0.100775871829E-01
 POTENTIAL ENERGY[hartree]    =          0.255912428137E+01   0.235769970352E+01
 KINETIC ENERGY [hartree]     =          0.230017102887E+01   0.250137619212E+01
 TEMPERATURE [K]              =                     538.625              585.741
 *******************************************************************************

 FOBSH| Put former active state           4 in new active state           4
 RANDOM_NUMBER_HOPPING_PROBA  0.66487806180832842     
 FOBSH| ACTIVE STATE =            4

 ENERGY| Total FORCE_EVAL ( MIXED ) energy (a.u.):             2.574283998957212

 FOBSH| CASE1: no hop and no trivial crossing
 ENTER integrator.F
 STEP NUMBER                  =           31
 CPU TIME [s]                 =    5.3077538963407278E-002   5.8276785447472522E-002

 *******************************************************************************
 ENSEMBLE TYPE                =                                              NVE
 STEP NUMBER                  =                                               31
 TIME [fs]                    =                                         3.100000
 CONSERVED QUANTITY [hartree] =                               0.485931172798E+01

                                              INSTANTANEOUS             AVERAGES
 CPU TIME [s]                 =                        0.05                 0.06
 ENERGY DRIFT PER ATOM [K]    =          0.723979642677E-01  -0.741708552324E-02
 POTENTIAL ENERGY[hartree]    =          0.257428399896E+01   0.236468629369E+01
 KINETIC ENERGY [hartree]     =          0.228502772902E+01   0.249439720944E+01
 TEMPERATURE [K]              =                     535.079              584.106
 *******************************************************************************

 FOBSH| Put former active state           4 in new active state           4
 RANDOM_NUMBER_HOPPING_PROBA  0.35668735676234831     
 FOBSH| ACTIVE STATE =            4

 ENERGY| Total FORCE_EVAL ( MIXED ) energy (a.u.):             2.587077994594259

 FOBSH| CASE1: no hop and no trivial crossing
 ENTER integrator.F
 STEP NUMBER                  =           32
 CPU TIME [s]                 =    4.7502864152193069E-002   5.7940100406995036E-002

 *******************************************************************************
 ENSEMBLE TYPE                =                                              NVE
 STEP NUMBER                  =                                               32
 TIME [fs]                    =                                         3.200000
 CONSERVED QUANTITY [hartree] =                               0.485932615988E+01

                                              INSTANTANEOUS             AVERAGES
 CPU TIME [s]                 =                        0.05                 0.06
 ENERGY DRIFT PER ATOM [K]    =          0.774615510442E-01  -0.476462813051E-02
 POTENTIAL ENERGY[hartree]    =          0.258707799459E+01   0.237163603435E+01
 KINETIC ENERGY [hartree]     =          0.227224816528E+01   0.248745505181E+01
 TEMPERATURE [K]              =                     532.086              582.481
 *******************************************************************************

 FOBSH| Put former active state           4 in new active state           4
 RANDOM_NUMBER_HOPPING_PROBA  0.25602569204134495     
 FOBSH| ACTIVE STATE =            4

 ENERGY| Total FORCE_EVAL ( MIXED ) energy (a.u.):             2.597272000026600

 FOBSH| CASE1: no hop and no trivial crossing
 ENTER integrator.F
 STEP NUMBER                  =           33
 CPU TIME [s]                 =    5.0562409684062004E-002   5.7716534021451611E-002

 *******************************************************************************
 ENSEMBLE TYPE                =                                              NVE
 STEP NUMBER                  =                                               33
 TIME [fs]                    =                                         3.300000
 CONSERVED QUANTITY [hartree] =                               0.485933840427E+01

                                              INSTANTANEOUS             AVERAGES
 CPU TIME [s]                 =                        0.05                 0.06
 ENERGY DRIFT PER ATOM [K]    =          0.817576266301E-01  -0.214274162261E-02
 POTENTIAL ENERGY[hartree]    =          0.259727200003E+01   0.237847348785E+01
 KINETIC ENERGY [hartree]     =          0.226206640424E+01   0.248062509280E+01
 TEMPERATURE [K]              =                     529.702              580.881
 *******************************************************************************

 FOBSH| Put former active state           4 in new active state           4
 RANDOM_NUMBER_HOPPING_PROBA  0.31839316669520429     
 FOBSH| ACTIVE STATE =            4

 ENERGY| Total FORCE_EVAL ( MIXED ) energy (a.u.):             2.604666848051036

 FOBSH| CASE1: no hop and no trivial crossing
 ENTER integrator.F
 STEP NUMBER                  =           34
 CPU TIME [s]                 =    5.0028220284730196E-002   5.7490407146842157E-002

 *******************************************************************************
 ENSEMBLE TYPE                =                                              NVE
 STEP NUMBER                  =                                               34
 TIME [fs]                    =                                         3.400000
 CONSERVED QUANTITY [hartree] =                               0.485934827989E+01

                                              INSTANTANEOUS             AVERAGES
 CPU TIME [s]                 =                        0.05                 0.06
 ENERGY DRIFT PER ATOM [K]    =          0.852225954685E-01   0.426827115361E-03
 POTENTIAL ENERGY[hartree]    =          0.260466684805E+01   0.238512623374E+01
 KINETIC ENERGY [hartree]     =          0.225468143184E+01   0.247397969100E+01
 TEMPERATURE [K]              =                     527.973              579.325
 *******************************************************************************

 FOBSH| Put former active state           4 in new active state           4
 RANDOM_NUMBER_HOPPING_PROBA  0.30362964774364765     
 FOBSH| ACTIVE STATE =            4

 ENERGY| Total FORCE_EVAL ( MIXED ) energy (a.u.):             2.609101272895310

 FOBSH| CASE1: no hop and no trivial crossing
 ENTER integrator.F
 STEP NUMBER                  =           35
 CPU TIME [s]                 =    4.9642272759228945E-002   5.7266174735767485E-002

 *******************************************************************************
 ENSEMBLE TYPE                =                                              NVE
 STEP NUMBER                  =                                               35
 TIME [fs]                    =                                         3.500000
 CONSERVED QUANTITY [hartree] =                               0.485935564721E+01

                                              INSTANTANEOUS             AVERAGES
 CPU TIME [s]                 =                        0.05                 0.06
 ENERGY DRIFT PER ATOM [K]    =          0.878074980371E-01   0.292341771312E-02
 POTENTIAL ENERGY[hartree]    =          0.260910127290E+01   0.239152552057E+01
 KINETIC ENERGY [hartree]     =          0.225025437432E+01   0.246758753910E+01
 TEMPERATURE [K]              =                     526.936              577.828
 *******************************************************************************

 FOBSH| Put former active state           4 in new active state           4
 RANDOM_NUMBER_HOPPING_PROBA  0.48480552012090300     
 FOBSH| ACTIVE STATE =            4

 ENERGY| Total FORCE_EVAL ( MIXED ) energy (a.u.):             2.610454172509042

 FOBSH| CASE1: no hop and no trivial crossing
 ENTER integrator.F
 STEP NUMBER                  =           36
 CPU TIME [s]                 =    4.7531751915812492E-002   5.6995774101879844E-002

 *******************************************************************************
 ENSEMBLE TYPE                =                                              NVE
 STEP NUMBER                  =                                               36
 TIME [fs]                    =                                         3.600000
 CONSERVED QUANTITY [hartree] =                               0.485936040083E+01

                                              INSTANTANEOUS             AVERAGES
 CPU TIME [s]                 =                        0.05                 0.06
 ENERGY DRIFT PER ATOM [K]    =          0.894753549079E-01   0.532763819076E-02
 POTENTIAL ENERGY[hartree]    =          0.261045417251E+01   0.239760687202E+01
 KINETIC ENERGY [hartree]     =          0.224890622832E+01   0.246151305824E+01
 TEMPERATURE [K]              =                     526.620              576.406
 *******************************************************************************

 FOBSH| Put former active state           4 in new active state           4
 RANDOM_NUMBER_HOPPING_PROBA  0.59258053737151251     
 FOBSH| ACTIVE STATE =            4

 ENERGY| Total FORCE_EVAL ( MIXED ) energy (a.u.):             2.608646326564122

 FOBSH| CASE1: no hop and no trivial crossing
 ENTER integrator.F
 STEP NUMBER                  =           37
 CPU TIME [s]                 =    5.1503191236406565E-002   5.6847325916326519E-002

 *******************************************************************************
 ENSEMBLE TYPE                =                                              NVE
 STEP NUMBER                  =                                               37
 TIME [fs]                    =                                         3.700000
 CONSERVED QUANTITY [hartree] =                               0.485936245520E+01

                                              INSTANTANEOUS             AVERAGES
 CPU TIME [s]                 =                        0.05                 0.06
 ENERGY DRIFT PER ATOM [K]    =          0.901961549163E-01   0.762138188604E-02
 POTENTIAL ENERGY[hartree]    =          0.260864632656E+01   0.240331064106E+01
 KINETIC ENERGY [hartree]     =          0.225071612864E+01   0.245581584393E+01
 TEMPERATURE [K]              =                     527.044              575.072
 *******************************************************************************

 FOBSH| Put former active state           4 in new active state           4
 RANDOM_NUMBER_HOPPING_PROBA  0.82802406866778777     
 FOBSH| ACTIVE STATE =            4

 ENERGY| Total FORCE_EVAL ( MIXED ) energy (a.u.):             2.603641624929136

 FOBSH| CASE1: no hop and no trivial crossing
 ENTER integrator.F
 STEP NUMBER                  =           38
 CPU TIME [s]                 =    4.7711453866213560E-002   5.6606908230797226E-002

 *******************************************************************************
 ENSEMBLE TYPE                =                                              NVE
 STEP NUMBER                  =                                               38
 TIME [fs]                    =                                         3.800000
 CONSERVED QUANTITY [hartree] =                               0.485936179985E+01

                                              INSTANTANEOUS             AVERAGES
 CPU TIME [s]                 =                        0.05                 0.06
 ENERGY DRIFT PER ATOM [K]    =          0.899662163051E-01   0.978835121286E-02
 POTENTIAL ENERGY[hartree]    =          0.260364162493E+01   0.240858250905E+01
 KINETIC ENERGY [hartree]     =          0.225572017492E+01   0.245055016843E+01
 TEMPERATURE [K]              =                     528.216              573.839
 *******************************************************************************

 FOBSH| Put former active state           4 in new active state           4
 RANDOM_NUMBER_HOPPING_PROBA  0.75328018252790863     
 FOBSH| ACTIVE STATE =            4

 ENERGY| Total FORCE_EVAL ( MIXED ) energy (a.u.):             2.595447628409457

 FOBSH| CASE1: no hop and no trivial crossing
 ENTER integrator.F
 STEP NUMBER                  =           39
 CPU TIME [s]                 =    5.1843133289366961E-002   5.6484760155375936E-002

 *******************************************************************************
 ENSEMBLE TYPE                =                                              NVE
 STEP NUMBER                  =                                               39
 TIME [fs]                    =                                         3.900000
 CONSERVED QUANTITY [hartree] =                               0.485935841253E+01

                                              INSTANTANEOUS             AVERAGES
 CPU TIME [s]                 =                        0.05                 0.06
 ENERGY DRIFT PER ATOM [K]    =          0.887777403793E-01   0.118137201658E-01
 POTENTIAL ENERGY[hartree]    =          0.259544762841E+01   0.241337392237E+01
 KINETIC ENERGY [hartree]     =          0.226391078412E+01   0.244576454319E+01
 TEMPERATURE [K]              =                     530.134              572.718
 *******************************************************************************

 FOBSH| Put former active state           4 in new active state           4
 RANDOM_NUMBER_HOPPING_PROBA  0.66104059957350725     
 FOBSH| ACTIVE STATE =            4

 ENERGY| Total FORCE_EVAL ( MIXED ) energy (a.u.):             2.584115682831194

 FOBSH| CASE1: no hop and no trivial crossing
 ENTER integrator.F
 STEP NUMBER                  =           40
 CPU TIME [s]                 =    8.6487330030649900E-002   5.7234824402257793E-002

 *******************************************************************************
 ENSEMBLE TYPE                =                                              NVE
 STEP NUMBER                  =                                               40
 TIME [fs]                    =                                         4.000000
 CONSERVED QUANTITY [hartree] =                               0.485935233538E+01

                                              INSTANTANEOUS             AVERAGES
 CPU TIME [s]                 =                        0.09                 0.06
 ENERGY DRIFT PER ATOM [K]    =          0.866455077867E-01   0.136845148564E-01
 POTENTIAL ENERGY[hartree]    =          0.258411568283E+01   0.241764246638E+01
 KINETIC ENERGY [hartree]     =          0.227523665255E+01   0.244150134592E+01
 TEMPERATURE [K]              =                     532.786              571.720
 *******************************************************************************

 FOBSH| Put former active state           4 in new active state           4
 RANDOM_NUMBER_HOPPING_PROBA   2.5683806357493563E-002
 FOBSH| ACTIVE STATE =            4

 ENERGY| Total FORCE_EVAL ( MIXED ) energy (a.u.):             2.569740356242906

 FOBSH| CASE1: no hop and no trivial crossing
 ENTER integrator.F
 STEP NUMBER                  =           41
 CPU TIME [s]                 =   0.10135319083929062        5.8310882120234199E-002

 *******************************************************************************
 ENSEMBLE TYPE                =                                              NVE
 STEP NUMBER                  =                                               41
 TIME [fs]                    =                                         4.100000
 CONSERVED QUANTITY [hartree] =                               0.485934363157E+01

                                              INSTANTANEOUS             AVERAGES
 CPU TIME [s]                 =                        0.10                 0.06
 ENERGY DRIFT PER ATOM [K]    =          0.835916802233E-01   0.153895676702E-01
 POTENTIAL ENERGY[hartree]    =          0.256974035624E+01   0.242135217101E+01
 KINETIC ENERGY [hartree]     =          0.228960327532E+01   0.243779651493E+01
 TEMPERATURE [K]              =                     536.150              570.852
 *******************************************************************************

 FOBSH| Put former active state           4 in new active state           4
 RANDOM_NUMBER_HOPPING_PROBA  0.90989130718107158     
 FOBSH| ACTIVE STATE =            4

 ENERGY| Total FORCE_EVAL ( MIXED ) energy (a.u.):             2.552458401566998

 FOBSH| CASE1: no hop and no trivial crossing
 ENTER integrator.F
 STEP NUMBER                  =           42
 CPU TIME [s]                 =    5.7081404142081738E-002   5.8281608835040091E-002

 *******************************************************************************
 ENSEMBLE TYPE                =                                              NVE
 STEP NUMBER                  =                                               42
 TIME [fs]                    =                                         4.200000
 CONSERVED QUANTITY [hartree] =                               0.485933240342E+01

                                              INSTANTANEOUS             AVERAGES
 CPU TIME [s]                 =                        0.06                 0.06
 ENERGY DRIFT PER ATOM [K]    =          0.796521649641E-01   0.169196295105E-01
 POTENTIAL ENERGY[hartree]    =          0.255245840157E+01   0.242447374793E+01
 KINETIC ENERGY [hartree]     =          0.230687400185E+01   0.243467931224E+01
 TEMPERATURE [K]              =                     540.195              570.122
 *******************************************************************************

 FOBSH| Put former active state           4 in new active state           4
 RANDOM_NUMBER_HOPPING_PROBA  0.23290914517014807     
 FOBSH| ACTIVE STATE =            4

 ENERGY| Total FORCE_EVAL ( MIXED ) energy (a.u.):             2.532447123896207

 FOBSH| CASE1: no hop and no trivial crossing
 ENTER integrator.F
 STEP NUMBER                  =           43
 CPU TIME [s]                 =    5.1169184967875481E-002   5.8116203628826961E-002

 *******************************************************************************
 ENSEMBLE TYPE                =                                              NVE
 STEP NUMBER                  =                                               43
 TIME [fs]                    =                                         4.300000
 CONSERVED QUANTITY [hartree] =                               0.485931878553E+01

                                              INSTANTANEOUS             AVERAGES
 CPU TIME [s]                 =                        0.05                 0.06
 ENERGY DRIFT PER ATOM [K]    =          0.748741817276E-01   0.182674097946E-01
 POTENTIAL ENERGY[hartree]    =          0.253244712390E+01   0.242698475667E+01
 KINETIC ENERGY [hartree]     =          0.232687166163E+01   0.243217215758E+01
 TEMPERATURE [K]              =                     544.877              569.535
 *******************************************************************************

 FOBSH| Put former active state           4 in new active state           4
 RANDOM_NUMBER_HOPPING_PROBA  0.32290045874270040     
 FOBSH| ACTIVE STATE =            4

 ENERGY| Total FORCE_EVAL ( MIXED ) energy (a.u.):             2.509922178802737

 FOBSH| CASE1: no hop and no trivial crossing
 ENTER integrator.F
 STEP NUMBER                  =           44
 CPU TIME [s]                 =    6.3507319893687963E-002   5.8238728998482897E-002

 *******************************************************************************
 ENSEMBLE TYPE                =                                              NVE
 STEP NUMBER                  =                                               44
 TIME [fs]                    =                                         4.400000
 CONSERVED QUANTITY [hartree] =                               0.485930294007E+01

                                              INSTANTANEOUS             AVERAGES
 CPU TIME [s]                 =                        0.06                 0.06
 ENERGY DRIFT PER ATOM [K]    =          0.693146319438E-01   0.194275739344E-01
 POTENTIAL ENERGY[hartree]    =          0.250992217880E+01   0.242886969809E+01
 KINETIC ENERGY [hartree]     =          0.234938076126E+01   0.243029053493E+01
 TEMPERATURE [K]              =                     550.148              569.095
 *******************************************************************************

 FOBSH| Put former active state           4 in new active state           4
 RANDOM_NUMBER_HOPPING_PROBA   9.7544926984548766E-002
 FOBSH| ACTIVE STATE =            4

 ENERGY| Total FORCE_EVAL ( MIXED ) energy (a.u.):             2.485134939342598

 FOBSH| CASE1: no hop and no trivial crossing
 ENTER integrator.F
 STEP NUMBER                  =           45
 CPU TIME [s]                 =    7.6926268171519041E-002   5.8654007646772588E-002

 *******************************************************************************
 ENSEMBLE TYPE                =                                              NVE
 STEP NUMBER                  =                                               45
 TIME [fs]                    =                                         4.500000
 CONSERVED QUANTITY [hartree] =                               0.485928505823E+01

                                              INSTANTANEOUS             AVERAGES
 CPU TIME [s]                 =                        0.08                 0.06
 ENERGY DRIFT PER ATOM [K]    =          0.630405959132E-01   0.203967522006E-01
 POTENTIAL ENERGY[hartree]    =          0.248513493934E+01   0.243012003678E+01
 KINETIC ENERGY [hartree]     =          0.237415011888E+01   0.242904297013E+01
 TEMPERATURE [K]              =                     555.948              568.803
 *******************************************************************************

 FOBSH| Put former active state           4 in new active state           4
 RANDOM_NUMBER_HOPPING_PROBA  0.71348210410314561     
 FOBSH| ACTIVE STATE =            4

 ENERGY| Total FORCE_EVAL ( MIXED ) energy (a.u.):             2.458369452190662

 FOBSH| CASE1: no hop and no trivial crossing
 ENTER integrator.F
 STEP NUMBER                  =           46
 CPU TIME [s]                 =    4.6549723949283361E-002   5.8390871044653257E-002

 *******************************************************************************
 ENSEMBLE TYPE                =                                              NVE
 STEP NUMBER                  =                                               46
 TIME [fs]                    =                                         4.600000
 CONSERVED QUANTITY [hartree] =                               0.485926537437E+01

                                              INSTANTANEOUS             AVERAGES
 CPU TIME [s]                 =                        0.05                 0.06
 ENERGY DRIFT PER ATOM [K]    =          0.561343034187E-01   0.211736554879E-01
 POTENTIAL ENERGY[hartree]    =          0.245836945219E+01   0.243073415451E+01
 KINETIC ENERGY [hartree]     =          0.240089592218E+01   0.242843107779E+01
 TEMPERATURE [K]              =                     562.211              568.659
 *******************************************************************************

 FOBSH| Put former active state           4 in new active state           4
 RANDOM_NUMBER_HOPPING_PROBA  0.23217762780677217     
 FOBSH| ACTIVE STATE =            4

 ENERGY| Total FORCE_EVAL ( MIXED ) energy (a.u.):             2.429938824098708

 FOBSH| CASE1: no hop and no trivial crossing
 ENTER integrator.F
 STEP NUMBER                  =           47
 CPU TIME [s]                 =    6.3569547608494759E-002   5.8501055652394565E-002

 *******************************************************************************
 ENSEMBLE TYPE                =                                              NVE
 STEP NUMBER                  =                                               47
 TIME [fs]                    =                                         4.700000
 CONSERVED QUANTITY [hartree] =                               0.485924412316E+01

                                              INSTANTANEOUS             AVERAGES
 CPU TIME [s]                 =                        0.06                 0.06
 ENERGY DRIFT PER ATOM [K]    =          0.486780881470E-01   0.217588561828E-01
 POTENTIAL ENERGY[hartree]    =          0.242993882410E+01   0.243071723258E+01
 KINETIC ENERGY [hartree]     =          0.242930529906E+01   0.242844967824E+01
 TEMPERATURE [K]              =                     568.864              568.664
 *******************************************************************************

 FOBSH| Put former active state           4 in new active state           4
 RANDOM_NUMBER_HOPPING_PROBA  0.86781090183757892     
 FOBSH| ACTIVE STATE =            4

 ENERGY| Total FORCE_EVAL ( MIXED ) energy (a.u.):             2.400181341762268

 FOBSH| CASE1: no hop and no trivial crossing
 ENTER integrator.F
 STEP NUMBER                  =           48
 CPU TIME [s]                 =    7.1166363079100847E-002   5.8764916223784276E-002

 *******************************************************************************
 ENSEMBLE TYPE                =                                              NVE
 STEP NUMBER                  =                                               48
 TIME [fs]                    =                                         4.800000
 CONSERVED QUANTITY [hartree] =                               0.485922157607E+01

                                              INSTANTANEOUS             AVERAGES
 CPU TIME [s]                 =                        0.07                 0.06
 ENERGY DRIFT PER ATOM [K]    =          0.407672025479E-01   0.221548633988E-01
[...]
 CPU TIME [s]                 =                        0.07                 0.08
 ENERGY DRIFT PER ATOM [K]    =          0.240518871337E-01   0.148415528080E-01
 POTENTIAL ENERGY[hartree]    =          0.248419723600E+01   0.239181732693E+01
 KINETIC ENERGY [hartree]     =          0.237497669919E+01   0.246733023663E+01
 TEMPERATURE [K]              =                     556.142              577.768
 *******************************************************************************

 FOBSH| Put former active state           1 in new active state           1
 RANDOM_NUMBER_HOPPING_PROBA  0.21348813534843089     
 FOBSH| ACTIVE STATE =            1

 ENERGY| Total FORCE_EVAL ( MIXED ) energy (a.u.):             2.515066497018612

 FOBSH| CASE1: no hop and no trivial crossing
 ENTER integrator.F
 STEP NUMBER                  =          191
 CPU TIME [s]                 =   0.10416498593986034        7.6092495453782896E-002

 *******************************************************************************
 ENSEMBLE TYPE                =                                              NVE
 STEP NUMBER                  =                                              191
 TIME [fs]                    =                                        19.100000
 CONSERVED QUANTITY [hartree] =                               0.485919813012E+01

                                              INSTANTANEOUS             AVERAGES
 CPU TIME [s]                 =                        0.10                 0.08
 ENERGY DRIFT PER ATOM [K]    =          0.325409388096E-01   0.149342197504E-01
 POTENTIAL ENERGY[hartree]    =          0.251506649702E+01   0.239246261054E+01
 KINETIC ENERGY [hartree]     =          0.234413163310E+01   0.246668521776E+01
 TEMPERATURE [K]              =                     548.919              577.617
 *******************************************************************************

 FOBSH| Put former active state           1 in new active state           1
 RANDOM_NUMBER_HOPPING_PROBA  0.48895218309528526     
 FOBSH| ACTIVE STATE =            1

 ENERGY| Total FORCE_EVAL ( MIXED ) energy (a.u.):             2.545444138355357

 FOBSH| CASE1: no hop and no trivial crossing
 ENTER integrator.F
 STEP NUMBER                  =          192
 CPU TIME [s]                 =    7.1116983424872160E-002   7.6066581328632310E-002

 *******************************************************************************
 ENSEMBLE TYPE                =                                              NVE
 STEP NUMBER                  =                                              192
 TIME [fs]                    =                                        19.200000
 CONSERVED QUANTITY [hartree] =                               0.485922207940E+01

                                              INSTANTANEOUS             AVERAGES
 CPU TIME [s]                 =                        0.07                 0.08
 ENERGY DRIFT PER ATOM [K]    =          0.409438014740E-01   0.150696863219E-01
 POTENTIAL ENERGY[hartree]    =          0.254544413836E+01   0.239325938934E+01
 KINETIC ENERGY [hartree]     =          0.231377794105E+01   0.246588882569E+01
 TEMPERATURE [K]              =                     541.811              577.431
 *******************************************************************************

 FOBSH| Put former active state           1 in new active state           1
 RANDOM_NUMBER_HOPPING_PROBA   9.6361635495727002E-002
 FOBSH| ACTIVE STATE =            1

 ENERGY| Total FORCE_EVAL ( MIXED ) energy (a.u.):             2.574951590281229

 FOBSH| CASE1: no hop and no trivial crossing
 ENTER integrator.F
 STEP NUMBER                  =          193
 CPU TIME [s]                 =   0.10343462089076638        7.6208384642425755E-002

 *******************************************************************************
 ENSEMBLE TYPE                =                                              NVE
 STEP NUMBER                  =                                              193
 TIME [fs]                    =                                        19.300000
 CONSERVED QUANTITY [hartree] =                               0.485924548914E+01

                                              INSTANTANEOUS             AVERAGES
 CPU TIME [s]                 =                        0.10                 0.08
 ENERGY DRIFT PER ATOM [K]    =          0.491573582307E-01   0.152463063836E-01
 POTENTIAL ENERGY[hartree]    =          0.257495159028E+01   0.239420079970E+01
 KINETIC ENERGY [hartree]     =          0.228429389886E+01   0.246494791934E+01
 TEMPERATURE [K]              =                     534.907              577.210
 *******************************************************************************

 FOBSH| Put former active state           1 in new active state           1
 RANDOM_NUMBER_HOPPING_PROBA  0.48564136564112370     
 FOBSH| ACTIVE STATE =            1

 ENERGY| Total FORCE_EVAL ( MIXED ) energy (a.u.):             2.603218824720396

 FOBSH| CASE1: no hop and no trivial crossing
 ENTER integrator.F
 STEP NUMBER                  =          194
 CPU TIME [s]                 =    6.8002037703990936E-002   7.6166083885011143E-002

 *******************************************************************************
 ENSEMBLE TYPE                =                                              NVE
 STEP NUMBER                  =                                              194
 TIME [fs]                    =                                        19.400000
 CONSERVED QUANTITY [hartree] =                               0.485926806259E+01

                                              INSTANTANEOUS             AVERAGES
 CPU TIME [s]                 =                        0.07                 0.08
 ENERGY DRIFT PER ATOM [K]    =          0.570774955330E-01   0.154619310699E-01
 POTENTIAL ENERGY[hartree]    =          0.260321882472E+01   0.239527821220E+01
 KINETIC ENERGY [hartree]     =          0.225604923787E+01   0.246387112201E+01
 TEMPERATURE [K]              =                     528.293              576.958
 *******************************************************************************

 FOBSH| Put former active state           1 in new active state           1
 RANDOM_NUMBER_HOPPING_PROBA  0.47719268623182526     
 FOBSH| ACTIVE STATE =            1

 ENERGY| Total FORCE_EVAL ( MIXED ) energy (a.u.):             2.629889026451156

 FOBSH| CASE1: no hop and no trivial crossing
 ENTER integrator.F
 STEP NUMBER                  =          195
 CPU TIME [s]                 =    6.9968858268111944E-002   7.6134303240821918E-002

 *******************************************************************************
 ENSEMBLE TYPE                =                                              NVE
 STEP NUMBER                  =                                              195
 TIME [fs]                    =                                        19.500000
 CONSERVED QUANTITY [hartree] =                               0.485928952793E+01

                                              INSTANTANEOUS             AVERAGES
 CPU TIME [s]                 =                        0.07                 0.08
 ENERGY DRIFT PER ATOM [K]    =          0.646088407299E-01   0.157139665041E-01
 POTENTIAL ENERGY[hartree]    =          0.262988902645E+01   0.239648134458E+01
 KINETIC ENERGY [hartree]     =          0.222940050148E+01   0.246266870857E+01
 TEMPERATURE [K]              =                     522.053              576.677
 *******************************************************************************

 FOBSH| Put former active state           1 in new active state           1
 RANDOM_NUMBER_HOPPING_PROBA  0.28885052192046046     
 FOBSH| ACTIVE STATE =            1

 ENERGY| Total FORCE_EVAL ( MIXED ) energy (a.u.):             2.654623037451367

 FOBSH| CASE1: no hop and no trivial crossing
 ENTER integrator.F
 STEP NUMBER                  =          196
 CPU TIME [s]                 =    4.2300553992390633E-002   7.5961682071187059E-002

 *******************************************************************************
 ENSEMBLE TYPE                =                                              NVE
 STEP NUMBER                  =                                              196
 TIME [fs]                    =                                        19.600000
 CONSERVED QUANTITY [hartree] =                               0.485930960429E+01

                                              INSTANTANEOUS             AVERAGES
 CPU TIME [s]                 =                        0.04                 0.08
 ENERGY DRIFT PER ATOM [K]    =          0.716528475006E-01   0.159993689581E-01
 POTENTIAL ENERGY[hartree]    =          0.265462303745E+01   0.239779839404E+01
 KINETIC ENERGY [hartree]     =          0.220468656684E+01   0.246135247316E+01
 TEMPERATURE [K]              =                     516.266              576.368
 *******************************************************************************

 FOBSH| Put former active state           1 in new active state           1
 RANDOM_NUMBER_HOPPING_PROBA  0.50938566447054467     
 FOBSH| ACTIVE STATE =            1

 ENERGY| Total FORCE_EVAL ( MIXED ) energy (a.u.):             2.677103662464586

 FOBSH| CASE1: no hop and no trivial crossing
 ENTER integrator.F
 STEP NUMBER                  =          197
 CPU TIME [s]                 =    4.3973678722977638E-002   7.5799306419673293E-002

 *******************************************************************************
 ENSEMBLE TYPE                =                                              NVE
 STEP NUMBER                  =                                              197
 TIME [fs]                    =                                        19.700000
 CONSERVED QUANTITY [hartree] =                               0.485932805421E+01

                                              INSTANTANEOUS             AVERAGES
 CPU TIME [s]                 =                        0.04                 0.08
 ENERGY DRIFT PER ATOM [K]    =          0.781261974606E-01   0.163147335698E-01
 POTENTIAL ENERGY[hartree]    =          0.267710366246E+01   0.239921618728E+01
 KINETIC ENERGY [hartree]     =          0.218222439174E+01   0.245993557934E+01
 TEMPERATURE [K]              =                     511.006              576.037
 *******************************************************************************

 FOBSH| Put former active state           1 in new active state           1
 RANDOM_NUMBER_HOPPING_PROBA  0.25014461903601903     
 FOBSH| ACTIVE STATE =            1

 ENERGY| Total FORCE_EVAL ( MIXED ) energy (a.u.):             2.697039622952044

 FOBSH| CASE1: no hop and no trivial crossing
 ENTER integrator.F
 STEP NUMBER                  =          198
 CPU TIME [s]                 =    7.1143517270684242E-002   7.5775792333062253E-002

 *******************************************************************************
 ENSEMBLE TYPE                =                                              NVE
 STEP NUMBER                  =                                              198
 TIME [fs]                    =                                        19.800000
 CONSERVED QUANTITY [hartree] =                               0.485934463714E+01

                                              INSTANTANEOUS             AVERAGES
 CPU TIME [s]                 =                        0.07                 0.08
 ENERGY DRIFT PER ATOM [K]    =          0.839444960042E-01   0.166562980266E-01
 POTENTIAL ENERGY[hartree]    =          0.269703962295E+01   0.240072034604E+01
 KINETIC ENERGY [hartree]     =          0.216230501419E+01   0.245843239467E+01
 TEMPERATURE [K]              =                     506.341              575.685
 *******************************************************************************

 FOBSH| Put former active state           1 in new active state           1
 RANDOM_NUMBER_HOPPING_PROBA  0.69767775389295372     
 FOBSH| ACTIVE STATE =            1

 ENERGY| Total FORCE_EVAL ( MIXED ) energy (a.u.):             2.714169278123371

 FOBSH| CASE1: no hop and no trivial crossing
 ENTER integrator.F
 STEP NUMBER                  =          199
 CPU TIME [s]                 =    5.5023454129695892E-002   7.5671509226512668E-002

 *******************************************************************************
 ENSEMBLE TYPE                =                                              NVE
 STEP NUMBER                  =                                              199
 TIME [fs]                    =                                        19.900000
 CONSERVED QUANTITY [hartree] =                               0.485935915493E+01

                                              INSTANTANEOUS             AVERAGES
 CPU TIME [s]                 =                        0.06                 0.08
 ENERGY DRIFT PER ATOM [K]    =          0.890382195317E-01   0.170200262753E-01
 POTENTIAL ENERGY[hartree]    =          0.271416927812E+01   0.240229546631E+01
 KINETIC ENERGY [hartree]     =          0.214518987681E+01   0.245685831166E+01
 TEMPERATURE [K]              =                     502.333              575.316
 *******************************************************************************

 FOBSH| Put former active state           1 in new active state           1
 RANDOM_NUMBER_HOPPING_PROBA  0.30406427272720471     
 FOBSH| ACTIVE STATE =            1

 ENERGY| Total FORCE_EVAL ( MIXED ) energy (a.u.):             2.728263865459249

 FOBSH| CASE1: no hop and no trivial crossing
 ENTER integrator.F
 STEP NUMBER                  =          200
 CPU TIME [s]                 =    4.3572613038122654E-002   7.5511014745570718E-002

 *******************************************************************************
 ENSEMBLE TYPE                =                                              NVE
 STEP NUMBER                  =                                              200
 TIME [fs]                    =                                        20.000000
 CONSERVED QUANTITY [hartree] =                               0.485937142463E+01

                                              INSTANTANEOUS             AVERAGES
 CPU TIME [s]                 =                        0.04                 0.08
 ENERGY DRIFT PER ATOM [K]    =          0.933431764490E-01   0.174016420262E-01
 POTENTIAL ENERGY[hartree]    =          0.272826386546E+01   0.240392530830E+01
 KINETIC ENERGY [hartree]     =          0.213110755918E+01   0.245522955790E+01
 TEMPERATURE [K]              =                     499.036              574.935
 *******************************************************************************


 -------------------------------------------------------------------------------
 -                                                                             -
 -                                DBCSR STATISTICS                             -
 -                                                                             -
 -------------------------------------------------------------------------------
 COUNTER                                    TOTAL       BLAS       SMM       ACC
 flops total                                    0       0.0%      0.0%      0.0%
 flops max/rank                                 0       0.0%      0.0%      0.0%
 matmuls inhomo. stacks                         0       0.0%      0.0%      0.0%
 matmuls total                                  0       0.0%      0.0%      0.0%
 number of processed stacks                     0       0.0%      0.0%      0.0%
 average stack size                                     0.0       0.0       0.0
 marketing flops                     0.000000E+00
 -------------------------------------------------------------------------------

 MEMORY| Estimated peak process memory [MiB]                                 108

 -------------------------------------------------------------------------------
 -                                                                             -
 -                           R E F E R E N C E S                               -
 -                                                                             -
 -------------------------------------------------------------------------------
 
 CP2K version 4.0 (Development Version), the CP2K developers group (2015).
 CP2K is freely available from https://www.cp2k.org/ .

 Borstnik, U; VandeVondele, J; Weber, V; Hutter, J. 
 PARALLEL COMPUTING, 40 (5-6), 47-58 (2014). 
 Sparse matrix multiplication: The distributed block-compressed sparse
 row library.
 http://dx.doi.org/10.1016/j.parco.2014.03.012


 Hutter, J; Iannuzzi, M; Schiffmann, F; VandeVondele, J. 
 WILEY INTERDISCIPLINARY REVIEWS-COMPUTATIONAL MOLECULAR SCIENCE, 4 (1), 15-25 (2014). 
 CP2K: atomistic simulations of condensed matter systems.
 http://dx.doi.org/10.1002/wcms.1159


 Frigo, M; Johnson, SG. 
 PROCEEDINGS OF THE IEEE, 93 (2), 216-231 (2005). 
 The design and implementation of FFTW3.
 http://dx.doi.org/10.1109/JPROC.2004.840301


 -------------------------------------------------------------------------------
 -                                                                             -
 -                                T I M I N G                                  -
 -                                                                             -
 -------------------------------------------------------------------------------
 SUBROUTINE                       CALLS  ASD         SELF TIME        TOTAL TIME
                                MAXIMUM       AVERAGE  MAXIMUM  AVERAGE  MAXIMUM
 CP2K                                 1  1.0    0.101    0.101   41.579   41.579
 topology_control                    10  4.0    0.030    0.030   23.734   23.734
 fist_create_force_env                9  2.0    0.000    0.000   22.923   22.923
 fist_init                            9  3.0    0.007    0.007   22.923   22.923
 connectivity_control                10  5.0    0.047    0.047   22.637   22.637
 read_topology_psf                  500  6.0   10.261   10.261   22.560   22.560
 qs_mol_dyn_low                       1  2.0    0.031    0.031   15.371   15.371
 parser_read_line                 43422  7.1    0.730    0.730   14.556   14.556
 parser_read_line_low               591  7.9   13.793   13.793   13.827   13.827
 velocity_verlet                    200  3.0    2.048    2.048   13.512   13.512
 fist_calc_energy_force            1845  4.0    0.517    0.517   11.562   11.562
 force_nonbond                      205  5.0    5.865    5.865    5.865    5.865
 force_intra_control               1845  5.0    4.686    4.686    4.686    4.686
 mixed_create_force_env               1  2.0    0.001    0.001    3.107    3.107
 mixed_init                           1  3.0    0.000    0.000    3.106    3.106
 force_field_control                  9  4.0    0.002    0.002    2.283    2.283
 read_force_field_charmm              9  5.0    0.463    0.463    2.246    2.246
 md_output                          200  3.0    0.002    0.002    1.645    1.645
 md_write_output                    201  4.0    1.315    1.315    1.389    1.389
 -------------------------------------------------------------------------------

 The number of warnings for this run is : 1
 
 -------------------------------------------------------------------------------
  **** **** ******  **  PROGRAM ENDED AT                 2021-01-14 05:47:57.688
 ***** ** ***  *** **   PROGRAM RAN ON                   bulstake.phys.ucl.ac.uk
 **    ****   ******    PROGRAM RAN BY                                 sgiannini
 ***** **    ** ** **   PROGRAM PROCESS ID                                 12730
  **** **  *******  **  PROGRAM STOPPED IN /scratch/sgiannini/FOB-SH-REGTESTS_/3
                                           2-XXXX_code_extension_V2/run-fssh-MTS
                                           1_NFF_FROZEN_C_FIRST_OFF
