#     Step Nr.          Time[fs]        Kin.[a.u.]          Temp[K]            Pot.[a.u.]        Cons Qty[a.u.]        UsedTime[s]
         0            0.000000         2.412123729       564.840579357         2.446232218         4.858355947         0.000000000
         1            0.100000         2.440711636       571.534933276         2.417622452         4.858334088        64.443863621
         2            0.200000         2.467926334       577.907726488         2.390386990         4.858313324         0.076185288
         3            0.300000         2.493438358       583.881809053         2.364855774         4.858294131         0.076746370
         4            0.400000         2.516943072       589.385845291         2.341333700         4.858276772         0.075156436
         5            0.500000         2.538165197       594.355373585         2.320096254         4.858261451         0.074817377
         6            0.600000         2.556862418       598.733652118         2.301385962         4.858248381         0.073809228
         7            0.700000         2.572828464       602.472378345         2.285409261         4.858237724         0.074551071
         8            0.800000         2.585895711       605.532300908         2.272333893         4.858229604         0.075300317
         9            0.900000         2.595937289       607.883710433         2.262286856         4.858224145         0.074283392
        10            1.000000         2.602868606       609.506798345         2.255352767         4.858221373         0.073552164
        11            1.100000         2.606648355       610.391892043         2.251572980         4.858221335         0.074166606
        12            1.200000         2.607278928       610.539551787         2.250945077         4.858224006         0.073189540
        13            1.300000         2.604806191       609.960517554         2.253423167         4.858229359         0.072046741
        14            1.400000         2.599318759       608.675540126         2.258918535         4.858237293         0.073651893
        15            1.500000         2.590946738       606.715086333         2.267300976         4.858247714         0.072037440
        16            1.600000         2.579859894       604.118909654         2.278400547         4.858260441         0.073155773
        17            1.700000         2.566265225       600.935482291         2.292010105         4.858275330         0.071452236
        18            1.800000         2.550404082       597.221320823         2.307888090         4.858292173         0.073143968
        19            1.900000         2.532548874       593.040214253         2.325761822         4.858310696         0.071746946
        20            2.000000         2.512999411       588.462368610         2.345331280         4.858330691         0.071154696
        21            2.100000         2.492078777       583.563439556         2.366273090         4.858351867         0.070734047
        22            2.200000         2.470128864       578.423487151         2.388245066         4.858373930         0.071799855
        23            2.300000         2.447505801       573.125904691         2.410890789         4.858396590         0.071159121
        24            2.400000         2.424575157       567.756297037         2.433844363         4.858419520         0.071193421
        25            2.500000         2.399445404       561.871729878         2.458997004         4.858442408         0.089477724
        26            2.600000         2.376974199       556.609707667         2.481490751         4.858464950         0.071335654
        27            2.700000         2.355301696       551.534715362         2.503185162         4.858486858         0.071348994
        28            2.800000         2.334781565       546.729571021         2.523726287         4.858507852         0.071119022
        29            2.900000         2.315752827       542.273662230         2.542774915         4.858527742         0.070280093
        30            3.000000         2.298536658       538.242197940         2.560009721         4.858546379         0.070527015
        31            3.100000         2.283315021       534.677787730         2.575249275         4.858564296         0.089383661
        32            3.200000         2.270583949       531.696586565         2.587994695         4.858578644         0.070788317
        33            3.300000         2.260438877       529.320942118         2.598152748         4.858591625         0.070954363
        34            3.400000         2.253085040       527.598913822         2.605516752         4.858601793         0.070762358
        35            3.500000         2.248687640       526.569186317         2.609921623         4.858609263         0.070832354
        36            3.600000         2.247368934       526.260388374         2.611245106         4.858614039         0.071060790
        37            3.700000         2.249208254       526.691097024         2.609407837         4.858616090         0.071421681
        38            3.800000         2.254241525       527.869724782         2.604373897         4.858615422         0.070552942
        39            3.900000         2.262460846       529.794421278         2.596151168         4.858612014         0.071039056
        40            4.000000         2.273814539       532.453085259         2.584791376         4.858605915         0.071326372
        41            4.100000         2.288207703       535.823493998         2.570389490         4.858597193         0.071082005
        42            4.200000         2.305503307       539.873559632         2.553082637         4.858585945         0.071344475
        43            4.300000         2.325523845       544.561715543         2.533048458         4.858572303         0.070611310
        44            4.400000         2.348053589       549.837445465         2.510502864         4.858556453         0.070730632
        45            4.500000         2.372841266       555.641909786         2.485697310         4.858538576         0.071034864
        46            4.600000         2.399603148       561.908668179         2.458915777         4.858518924         0.070603905
        47            4.700000         2.428026698       568.564535208         2.430471018         4.858497716         0.071451849
        48            4.800000         2.457774546       575.530509396         2.400700701         4.858475247         0.071039657
        49            4.900000         2.488488687       582.722757760         2.369963105         4.858451791         0.070502379
        50            5.000000         2.519795075       590.053691146         2.338632568         4.858427643         0.070438149
        51            5.100000         2.551308394       597.433080966         2.307094704         4.858403097         0.070630647
        52            5.200000         2.582636949       604.769205321         2.275741542         4.858378492         0.070389278
        53            5.300000         2.613387682       611.970022257         2.244966453         4.858354135         0.070086055
        54            5.400000         2.643171176       618.944343627         2.215159145         4.858330321         0.070308960
        55            5.500000         2.671606657       625.603004345         2.186700716         4.858307373         0.070436839
        56            5.600000         2.698326768       631.859981624         2.159958799         4.858285568         0.070568500
        57            5.700000         2.722982180       637.633473643         2.135282980         4.858265160         0.070057478
        58            5.800000         2.745245901       642.846909844         2.113000513         4.858246414         0.070783939
        59            5.900000         2.764817091       647.429843205         2.093412413         4.858229504         0.070374832
        60            6.000000         2.781424251       651.318697397         2.076790280         4.858214531         0.070930498
        61            6.100000         2.794827544       654.457310942         2.063374017         4.858201561         0.070478957
        62            6.200000         2.804820439       656.797320337         2.053370244         4.858190682         0.070783524
        63            6.300000         2.811232219       658.298749746         2.046950179         4.858182398         0.070651924
        64            6.400000         2.815266678       659.243488297         2.042911248         4.858177926         0.088746451
        65            6.500000         2.814279177       659.012247740         2.043896500         4.858175677         0.070609253
        66            6.600000         2.809595233       657.915421194         2.048580588         4.858175821         0.070456711
        67            6.700000         2.801221040       655.954458845         2.056958044         4.858179085         0.153708971
        68            6.800000         2.789209769       653.141811481         2.068975767         4.858185537         0.070196559
        69            6.900000         2.773662947       649.501253629         2.084532004         4.858194951         0.069636772
        70            7.000000         2.754728315       645.067381325         2.103478809         4.858207124         0.070208516
        71            7.100000         2.732596812       639.884906401         2.125624997         4.858221810         0.070191462
        72            7.200000         2.707499389       634.007909837         2.150739419         4.858238809         0.070088895
        73            7.300000         2.679703582       627.499039743         2.178554267         4.858257849         0.070320896
        74            7.400000         2.649509374       620.428542482         2.208769133         4.858278506         0.070523897
        75            7.500000         2.617238236       612.871696242         2.241059174         4.858297410         0.069921389
        76            7.600000         2.583300925       604.924686811         2.275016817         4.858317742         0.088924886
        77            7.700000         2.547979549       596.653574223         2.310358134         4.858337683         0.070159687
        78            7.800000         2.511730432       588.165215231         2.346632471         4.858362903         0.069704603
        79            7.900000         2.474946091       579.551524324         2.383442713         4.858388804         0.070324003
        80            8.000000         2.438035908       570.908365277         2.420378909         4.858414817         0.069949557
        81            8.100000         2.401411635       562.332156966         2.457028983         4.858440619         0.070883409
        82            8.200000         2.365481574       553.918510380         2.492984310         4.858465885         0.070416505
        83            8.300000         2.330645440       545.761025751         2.527844858         4.858490298         0.070465435
        84            8.400000         2.297289472       537.950147701         2.561224084         4.858513556         0.070371306
        85            8.500000         2.265781667       530.572049014         2.592753722         4.858535389         0.070554367
        86            8.600000         2.236467412       523.707608072         2.622088116         4.858555528         0.069306557
        87            8.700000         2.209665244       517.431415979         2.648908505         4.858573749         0.070304451
        88            8.800000         2.185663048       511.810885797         2.672926771         4.858589820         0.070097854
        89            8.900000         2.164714625       506.905449394         2.693888947         4.858603572         0.069958318
        90            9.000000         2.147036632       502.765841054         2.711578179         4.858614811         0.069975570
        91            9.100000         2.132806096       499.433514232         2.725817331         4.858623426         0.070393887
        92            9.200000         2.122158277       496.940142959         2.736471056         4.858629333         0.069622605
        93            9.300000         2.115185085       495.307249204         2.743447351         4.858632437         0.070194748
        94            9.400000         2.111934116       494.545978374         2.746698589         4.858632705         0.069783970
        95            9.500000         2.112408130       494.656977018         2.746222054         4.858630184         0.070420123
        96            9.600000         2.116565090       495.630401339         2.742059786         4.858624876         0.070058542
        97            9.700000         2.124318816       497.446070656         2.734298047         4.858616864         0.069849198
        98            9.800000         2.135540182       500.073747883         2.723066076         4.858606258         0.070710109
        99            9.900000         2.150058844       503.473544175         2.708534355         4.858593199         0.069948308
       100           10.000000         2.167665502       507.596448342         2.690912337         4.858577838         0.069884968
       101           10.100000         2.188114633       512.384966756         2.670445779         4.858560411         0.069987541
       102           10.200000         2.211127630       517.773858934         2.647413490         4.858541120         0.070114633
       103           10.300000         2.236396408       523.690981229         2.622123800         4.858520208         0.070133394
       104           10.400000         2.263587381       530.058219026         2.594910586         4.858497967         0.070348188
       105           10.500000         2.292345710       536.792480053         2.566128927         4.858474637         0.070311800
       106           10.600000         2.322299816       543.806753192         2.536150738         4.858450553         0.074063136
       107           10.700000         2.353066097       551.011211068         2.505359904         4.858426001         0.074635631
       108           10.800000         2.384253793       558.314350641         2.474147495         4.858401288         0.073253618
       109           10.900000         2.415469925       565.624149090         2.442906837         4.858376762         0.069494003
       110           11.000000         2.446324268       572.849228208         2.412028423         4.858352690         0.071250468
       111           11.100000         2.476434231       579.899998019         2.381895151         4.858329382         0.072491942
       112           11.200000         2.505429667       586.689782043         2.352877448         4.858307115         0.072475150
       113           11.300000         2.532957544       593.135911475         2.325328642         4.858286186         0.072883400
       114           11.400000         2.558686334       599.160753508         2.299580533         4.858266867         0.072526710
       115           11.500000         2.582310305       604.692715748         2.275939123         4.858249427         0.072789982
       116           11.600000         2.603394431       609.629929446         2.254839805         4.858234237         0.092473081
       117           11.700000         2.622076493       614.004657978         2.236142588         4.858219081         0.072172774
       118           11.800000         2.637896374       617.709157314         2.220310806         4.858207180         0.073133685
       119           11.900000         2.650679597       620.702570488         2.207521609         4.858201205         0.072310712
       120           12.000000         2.660315225       622.958919908         2.197880633         4.858195858         0.072336791
       121           12.100000         2.666723673       624.459569093         2.191469143         4.858192816         0.072039956
       122           12.200000         2.669860697       625.194157570         2.188331672         4.858192369         0.072023243
       123           12.300000         2.669723606       625.162055415         2.188470970         4.858194577         0.072373676
       124           12.400000         2.666352113       624.372561752         2.191847286         4.858199399         0.072384540
       125           12.500000         2.659827864       622.844795967         2.198378900         4.858206764         0.072121174
       126           12.600000         2.650273221       620.607410590         2.207943339         4.858216560         0.072634832
       127           12.700000         2.637849529       617.698187681         2.220379116         4.858228644         0.072496392
       128           12.800000         2.622754865       614.163510501         2.235487990         4.858242855         0.072860964
       129           12.900000         2.605221281       610.057718092         2.253037715         4.858258996         0.072023083
       130           13.000000         2.585511591       605.442352402         2.272765232         4.858276823         0.072776338
       131           13.100000         2.563915882       600.385342840         2.294380227         4.858296109         0.073116116
       132           13.200000         2.540747564       594.960079659         2.317569075         4.858316639         0.072260946
       133           13.300000         2.516339141       589.244424419         2.341998893         4.858338035         0.071507754
       134           13.400000         2.491037883       583.319696186         2.367322205         4.858360087         0.072539891
       135           13.500000         2.465201148       577.269576858         2.393181329         4.858382476         0.072779460
       136           13.600000         2.439191618       571.178994749         2.419213292         4.858404910         0.072465770
       137           13.700000         2.413372541       565.133010303         2.445054523         4.858427064         0.072427033
       138           13.800000         2.388102920       559.215690504         2.470345748         4.858448667         0.074636189
       139           13.900000         2.363732727       553.508987543         2.494736690         4.858469417         0.076308490
       140           14.000000         2.340598328       548.091667027         2.517890702         4.858489030         0.073094384
       141           14.100000         2.319018075       543.038276637         2.539489193         4.858507268         0.072997335
       142           14.200000         2.299288117       538.418165094         2.559235769         4.858523887         0.072926734
       143           14.300000         2.281678521       534.294573037         2.576860144         4.858538666         0.073612599
       144           14.400000         2.266429692       530.723795324         2.592121703         4.858551395         0.075117477
       145           14.500000         2.253749226       527.754444398         2.604812693         4.858561919         0.073617344
       146           14.600000         2.243809181       525.426810519         2.614760901         4.858570081         0.072861742
       147           14.700000         2.236743845       523.772339607         2.621831940         4.858575784         0.072968490
       148           14.800000         2.232648001       522.813226916         2.625930940         4.858578941         0.162137496
       149           14.900000         2.231575631       522.562112797         2.627003887         4.858579518         0.073686514
       150           15.000000         2.233539183       523.021912658         2.625038311         4.858577494         0.072383800
       151           15.100000         2.238509368       524.185767417         2.620063511         4.858572879         0.072973337
       152           15.200000         2.246415218       526.037059246         2.612150431         4.858565649         0.072575408
       153           15.300000         2.257143751       528.549331351         2.601411819         4.858555570         0.074442815
       154           15.400000         2.270644525       531.710771548         2.587896987         4.858541512         0.095355205
       155           15.500000         2.286505079       535.424795074         2.572021864         4.858526943         0.072626812
       156           15.600000         2.304663248       539.676845157         2.553846174         4.858509422         0.072308631
       157           15.700000         2.324851330       544.404234471         2.533640096         4.858491426         0.072644193
       158           15.800000         2.346782716       549.539848719         2.511689496         4.858472212         0.074452100
       159           15.900000         2.370151547       555.012065455         2.488300286         4.858451833         0.074854268
       160           16.000000         2.394632910       560.744800928         2.463797575         4.858430485         0.072633859
       161           16.100000         2.419886313       566.658322917         2.438522150         4.858408463         0.072609827
       162           16.200000         2.445559963       572.670253122         2.412826093         4.858386056         0.072396566
       163           16.300000         2.471295367       578.696643920         2.387068201         4.858363568         0.073973170
       164           16.400000         2.495997221       584.481011297         2.362344030         4.858341251         0.096353138
       165           16.500000         2.520783690       590.285192520         2.337535286         4.858318976         0.072635511
       166           16.600000         2.544586907       595.859128338         2.313710511         4.858297418         0.072588451
       167           16.700000         2.569918199       601.790889434         2.288358770         4.858276969         0.092623174
       168           16.800000         2.590717971       606.661516666         2.267540232         4.858258203         0.074356882
       169           16.900000         2.609552462       611.071939036         2.248688523         4.858240985         0.074909977
       170           17.000000         2.626144426       614.957234970         2.232081158         4.858225584         0.072828358
       171           17.100000         2.640245000       618.259128895         2.217967189         4.858212189         0.072559842
       172           17.200000         2.651637059       620.926776993         2.206563911         4.858200971         0.072167670
       173           17.300000         2.660138131       622.917450178         2.198053960         4.858192091         0.074010196
       174           17.400000         2.665602892       624.197118756         2.192582772         4.858185664         0.072985295
       175           17.500000         2.667925117       624.740908123         2.190256703         4.858181820         0.073115717
       176           17.600000         2.667039186       624.533451843         2.191141338         4.858180524         0.075798033
       177           17.700000         2.662921093       623.569128953         2.195260812         4.858181905         0.073014427
       178           17.800000         2.655588823       621.852150886         2.202597098         4.858185921         0.075489356
       179           17.900000         2.645102285       619.396546370         2.213090250         4.858192536         0.073992294
       180           18.000000         2.631562692       616.226015936         2.226638975         4.858201667         0.072451554
       181           18.100000         2.615111397       612.373660035         2.243101792         4.858213189         0.072662256
       182           18.200000         2.595928210       607.881584365         2.262298803         4.858227014         0.072250207
       183           18.300000         2.574229257       602.800398458         2.284013698         4.858242955         0.074685173
       184           18.400000         2.550264349       597.188599872         2.307996480         4.858260829         0.074966082
       185           18.500000         2.524313921       591.111857370         2.333966479         4.858280401         0.072613983
       186           18.600000         2.496685654       584.642219756         2.361615769         4.858301423         0.072645159
       187           18.700000         2.467710735       577.857240280         2.390612967         4.858323702         0.072682013
       188           18.800000         2.437739829       570.839033087         2.420607103         4.858346932         0.074479807
       189           18.900000         2.407138800       563.673271730         2.451232048         4.858370848         0.072502610
       190           19.000000         2.376284259       556.448146352         2.482110917         4.858395177         0.072660382
       191           19.100000         2.345558859       549.253261169         2.512860677         4.858419535         0.072436964
       192           19.200000         2.315346128       542.178426566         2.543097486         4.858443614         0.072719462
       193           19.300000         2.286024967       535.312368556         2.572442035         4.858467002         0.075475971
       194           19.400000         2.257964117       528.741434232         2.600525243         4.858489360         0.073445804
       195           19.500000         2.231517173       522.548423881         2.626993303         4.858510476         0.072606600
       196           19.600000         2.207018615       516.811661813         2.651511533         4.858530147         0.073008887
       197           19.700000         2.184780403       511.604199020         2.673767810         4.858548213         0.072362460
       198           19.800000         2.165088670       506.993038524         2.693475794         4.858564464         0.074670167
       199           19.900000         2.148200366       503.038349412         2.710378316         4.858578682         0.074851010
       200           20.000000         2.134340060       499.792718538         2.724250608         4.858590668         0.072418821
