 DBCSR| Multiplication driver                                               XSMM
 DBCSR| Multrec recursion limit                                              512
 DBCSR| Multiplication stack size                                           1000
 DBCSR| Maximum elements for images                                    UNLIMITED
 DBCSR| Randmat seed                                                    12341313
 DBCSR| Multiplication size stacks                                             3


  **** **** ******  **  PROGRAM STARTED AT               2021-01-14 05:47:13.924
 ***** ** ***  *** **   PROGRAM STARTED ON               bulstake.phys.ucl.ac.uk
 **    ****   ******    PROGRAM STARTED BY                             sgiannini
 ***** **    ** ** **   PROGRAM PROCESS ID                                 12735
  **** **  *******  **  PROGRAM STARTED IN /scratch/sgiannini/FOB-SH-REGTESTS_/3
                                           2-XXXX_code_extension_V2/run-fssh-MTS
                                           1_SIMPLEST

 CP2K| version string:                    CP2K version 4.0 (Development Version)
 CP2K| source code revision number:                                  git:3649ac3
 CP2K| cp2kflags: libint fftw3 libxc quip smm_dnn smm libxsmm libderiv_max_am1=5
 CP2K|             libint_max_am=6
 CP2K| is freely available from                            https://www.cp2k.org/
 CP2K| Program compiled at                          Wed  6 Jan 14:38:30 GMT 2021
 CP2K| Program compiled on                               bulstake.phys.ucl.ac.uk
 CP2K| Program compiled for                                                local
 CP2K| Data directory path           /scratch/sgiannini/flavoured-cptk/cp2k/data
 CP2K| Input file name                                                   run.inp

 GLOBAL| Force Environment number                                              1
 GLOBAL| Basis set file name                                           POTENTIAL
 GLOBAL| MM Potential file name                                     MM_POTENTIAL
 GLOBAL| Coordinate file name                                       pos-init.xyz
 GLOBAL| Force Environment number                                              2
 GLOBAL| Basis set file name                                           POTENTIAL
 GLOBAL| MM Potential file name                                     MM_POTENTIAL
 GLOBAL| Coordinate file name                                       pos-init.xyz
 GLOBAL| Force Environment number                                              3
 GLOBAL| Basis set file name                                           POTENTIAL
 GLOBAL| MM Potential file name                                     MM_POTENTIAL
 GLOBAL| Coordinate file name                                       pos-init.xyz
 GLOBAL| Method name                                                        CP2K
 GLOBAL| Project name                                                        run
 GLOBAL| Preferred FFT library                                             FFTW3
 GLOBAL| Preferred diagonalization lib.                                       SL
 GLOBAL| Run type                                                             MD
 GLOBAL| All-to-all communication in single precision                          F
 GLOBAL| FFTs using library dependent lengths                                  F
 GLOBAL| Global print level                                                  LOW
 GLOBAL| Total number of message passing processes                             1
 GLOBAL| Number of threads for this process                                    1
 GLOBAL| This output is from process                                           0
 GLOBAL| CPU model name :  Intel(R) Xeon(R) CPU E5-2687W v4 @ 3.00GHz

 MEMORY| system memory details [Kb]
 MEMORY|                        rank 0           min           max       average
 MEMORY| MemTotal             65894336      65894336      65894336      65894336
 MEMORY| MemFree               1130588       1130588       1130588       1130588
 MEMORY| Buffers                  8744          8744          8744          8744
 MEMORY| Cached               55012216      55012216      55012216      55012216
 MEMORY| Slab                  1947384       1947384       1947384       1947384
 MEMORY| SReclaimable          1698944       1698944       1698944       1698944
 MEMORY| MemLikelyFree        57850492      57850492      57850492      57850492

 TOTAL NUMBER OF FORCE EVALS           3
 NOTE:n_subforce_eval           2
 DECOMP =  T
 DECOMP =  T

 MD| Molecular Dynamics Protocol 
 MD| Ensemble Type                                                           NVE
 MD| Number of Time Steps                                                    200
 MD| Time Step [fs]                                                         0.10
 MD| Temperature [K]                                                      400.00
 MD| Temperature tolerance [K]                                              0.00
 MD| Print MD information every                                        1 step(s)
 MD| File type     Print frequency[steps]                             File names
 MD| Coordinates          200                                      run-pos-1.xyz
 MD| Velocities             1                                      run-vel-1.xyz
 MD| Energies               1                                         run-1.ener
 MD| Dump                 200                                      run-1.restart

 ROT| Rotational Analysis Info 
 ROT| Principal axes and moments of inertia in atomic units:
 ROT|                                1                 2                 3
 ROT| EIGENVALUES            0.319196005E+10   0.583971964E+10   0.882037602E+10
 ROT|      X                     0.997631408       0.066105605       0.019016393
 ROT|      Y                     0.066118536      -0.997811774      -0.000051363
 ROT|      Z                    -0.018971385      -0.001308578       0.999819171
 ROT| Numer of Rotovibrational vectors:     6

 Calculation of degrees of freedom
                                                      Number of atoms:       900
                                 Number of Intramolecular constraints:         0
                                 Number of Intermolecular constraints:         0
                                  Invariants(translation + rotations):         3
                                                   Degrees of freedom:      2697


 Restraints Information
                                  Number of Intramolecular restraints:         0
                                  Number of Intermolecular restraints:         0

 *** WARNING in motion/thermostat/thermostat_methods.F:280 :: Thermostat ***
 *** for Particles has been defined but the ensemble provided does not   ***
 *** support thermostat for Particles! Ignoring thermostat input.        ***

 ************************** Velocities initialization **************************
 Initial Temperature                                                    564.84 K
 COM velocity:           -0.000000000004     -0.000000000000      0.000000000001
 *******************************************************************************

 FIRST CALL: force_env_calc_energy_force
 RESTART_KEY F
 FOB-SH: ALLOCATION OF S MATRICES
 Lookup table files:
 ../topologies/S_psigma.txt                                                      
 ../topologies/S_ppi.txt                                                         
 ../topologies/S_psigma_carbon_sulfur.dat                                        
 ../topologies/S_ppi_carbon_sulfur.dat                                           
 ../topologies/S_psigma_sulfur_sulfur.dat                                        
 ../topologies/S_ppi_sulfur_sulfur.dat                                           
 C-S psigma nrows     1166666
 C-S ppi nrows     1166666
 S-S psigma nrows     1166666
 S-S ppi nrows     1166666
 FOBSH| ACTIVE STATE =            3

 ENERGY| Total FORCE_EVAL ( MIXED ) energy (a.u.):             2.446232217772700

 STEP NUMBER                  =            0
 CPU TIME [s]                 =    0.0000000000000000        0.0000000000000000     

 MD_ENERGIES| Initialization proceeding


 ******************************** GO CP2K GO! **********************************
 INITIAL POTENTIAL ENERGY[hartree]     =                      0.244623221777E+01
 INITIAL KINETIC ENERGY[hartree]       =                      0.241212372912E+01
 INITIAL TEMPERATURE[K]                =                                 564.841
 INITIAL VOLUME[bohr^3]                =                      0.580604601118E+05
 INITIAL CELL LNTHS[bohr]   =      0.7651501E+02   0.5624770E+02   0.1634991E+02
 INITIAL CELL ANGLS[deg]    =      0.9000000E+02   0.1244000E+03   0.9000000E+02
 ******************************** GO CP2K GO! **********************************
 FOBSH| *** OFF-DIAGONAL GRADIENT CALCULATION
 FOBSH| Put former active state           3 in new active state           3
 RANDOM_NUMBER_HOPPING_PROBA   5.9147270233983230E-002
 FOBSH| ACTIVE STATE =            3

 ENERGY| Total FORCE_EVAL ( MIXED ) energy (a.u.):             2.417622451703958

 FOBSH| CASE1: no hop and no trivial crossing
 ENTER integrator.F
 STEP NUMBER                  =            1
 CPU TIME [s]                 =    64.443863620981574        64.443863620981574     

 *******************************************************************************
 ENSEMBLE TYPE                =                                              NVE
 STEP NUMBER                  =                                                1
 TIME [fs]                    =                                         0.100000
 CONSERVED QUANTITY [hartree] =                               0.485833408781E+01

                                              INSTANTANEOUS             AVERAGES
 CPU TIME [s]                 =                       64.44                64.44
 ENERGY DRIFT PER ATOM [K]    =         -0.766949633478E-02   0.000000000000E+00
 POTENTIAL ENERGY[hartree]    =          0.241762245170E+01   0.241762245170E+01
 KINETIC ENERGY [hartree]     =          0.244071163610E+01   0.244071163610E+01
 TEMPERATURE [K]              =                     571.535              571.535
 *******************************************************************************

 FOBSH| *** OFF-DIAGONAL GRADIENT CALCULATION
 FOBSH| Put former active state           3 in new active state           3
 RANDOM_NUMBER_HOPPING_PROBA   6.0028801785314174E-002
 FOBSH| ACTIVE STATE =            3

 ENERGY| Total FORCE_EVAL ( MIXED ) energy (a.u.):             2.390386989939289

 FOBSH| CASE1: no hop and no trivial crossing
 ENTER integrator.F
 STEP NUMBER                  =            2
 CPU TIME [s]                 =    7.6185288373380899E-002   32.260024454677477     

 *******************************************************************************
 ENSEMBLE TYPE                =                                              NVE
 STEP NUMBER                  =                                                2
 TIME [fs]                    =                                         0.200000
 CONSERVED QUANTITY [hartree] =                               0.485831332394E+01

                                              INSTANTANEOUS             AVERAGES
 CPU TIME [s]                 =                        0.08                32.26
 ENERGY DRIFT PER ATOM [K]    =         -0.149547210586E-01  -0.747736052929E-02
 POTENTIAL ENERGY[hartree]    =          0.239038698994E+01   0.240400472082E+01
 KINETIC ENERGY [hartree]     =          0.246792633400E+01   0.245431898505E+01
 TEMPERATURE [K]              =                     577.908              574.721
 *******************************************************************************

 FOBSH| *** OFF-DIAGONAL GRADIENT CALCULATION
 FOBSH| Put former active state           3 in new active state           3
 RANDOM_NUMBER_HOPPING_PROBA   7.3757525147303299E-002
 FOBSH| ACTIVE STATE =            3

 ENERGY| Total FORCE_EVAL ( MIXED ) energy (a.u.):             2.364855773581247

 FOBSH| CASE1: no hop and no trivial crossing
 ENTER integrator.F
 STEP NUMBER                  =            3
 CPU TIME [s]                 =    7.6746369712054729E-002   21.532265093022335     

 *******************************************************************************
 ENSEMBLE TYPE                =                                              NVE
 STEP NUMBER                  =                                                3
 TIME [fs]                    =                                         0.300000
 CONSERVED QUANTITY [hartree] =                               0.485829413140E+01

                                              INSTANTANEOUS             AVERAGES
 CPU TIME [s]                 =                        0.08                21.53
 ENERGY DRIFT PER ATOM [K]    =         -0.216886303224E-01  -0.122144504603E-01
 POTENTIAL ENERGY[hartree]    =          0.236485577358E+01   0.239095507174E+01
 KINETIC ENERGY [hartree]     =          0.249343835782E+01   0.246735877597E+01
 TEMPERATURE [K]              =                     583.882              577.775
 *******************************************************************************

 FOBSH| *** OFF-DIAGONAL GRADIENT CALCULATION
 FOBSH| Put former active state           3 in new active state           3
 RANDOM_NUMBER_HOPPING_PROBA  0.80854958276690769     
 FOBSH| ACTIVE STATE =            3

 ENERGY| Total FORCE_EVAL ( MIXED ) energy (a.u.):             2.341333699950324

 FOBSH| CASE1: no hop and no trivial crossing
 ENTER integrator.F
 STEP NUMBER                  =            4
 CPU TIME [s]                 =    7.5156436301767826E-002   16.167987928842194     

 *******************************************************************************
 ENSEMBLE TYPE                =                                              NVE
 STEP NUMBER                  =                                                4
 TIME [fs]                    =                                         0.400000
 CONSERVED QUANTITY [hartree] =                               0.485827677202E+01

                                              INSTANTANEOUS             AVERAGES
 CPU TIME [s]                 =                        0.08                16.17
 ENERGY DRIFT PER ATOM [K]    =         -0.277793539687E-01  -0.161056763374E-01
 POTENTIAL ENERGY[hartree]    =          0.234133369995E+01   0.237854972879E+01
 KINETIC ENERGY [hartree]     =          0.251694307207E+01   0.247975485000E+01
 TEMPERATURE [K]              =                     589.386              580.678
 *******************************************************************************

 FOBSH| *** OFF-DIAGONAL GRADIENT CALCULATION
 FOBSH| Put former active state           3 in new active state           3
 RANDOM_NUMBER_HOPPING_PROBA  0.83291450404706813     
 FOBSH| ACTIVE STATE =            3

 ENERGY| Total FORCE_EVAL ( MIXED ) energy (a.u.):             2.320096253965153

 FOBSH| CASE1: no hop and no trivial crossing
 ENTER integrator.F
 STEP NUMBER                  =            5
 CPU TIME [s]                 =    7.4817376676946878E-002   12.949353818409145     

 *******************************************************************************
 ENSEMBLE TYPE                =                                              NVE
 STEP NUMBER                  =                                                5
 TIME [fs]                    =                                         0.500000
 CONSERVED QUANTITY [hartree] =                               0.485826145058E+01

                                              INSTANTANEOUS             AVERAGES
 CPU TIME [s]                 =                        0.07                12.95
 ENERGY DRIFT PER ATOM [K]    =         -0.331550474872E-01  -0.195155505674E-01
 POTENTIAL ENERGY[hartree]    =          0.232009625397E+01   0.236685903383E+01
 KINETIC ENERGY [hartree]     =          0.253816519661E+01   0.249143691932E+01
 TEMPERATURE [K]              =                     594.355              583.413
 *******************************************************************************

 FOBSH| *** OFF-DIAGONAL GRADIENT CALCULATION
 FOBSH| Put former active state           3 in new active state           3
 RANDOM_NUMBER_HOPPING_PROBA  0.18164339214140215     
 FOBSH| ACTIVE STATE =            3

 ENERGY| Total FORCE_EVAL ( MIXED ) energy (a.u.):             2.301385962497755

 FOBSH| CASE1: no hop and no trivial crossing
 ENTER integrator.F
 STEP NUMBER                  =            6
 CPU TIME [s]                 =    7.3809227906167507E-002   10.803429719991982     

 *******************************************************************************
 ENSEMBLE TYPE                =                                              NVE
 STEP NUMBER                  =                                                6
 TIME [fs]                    =                                         0.600000
 CONSERVED QUANTITY [hartree] =                               0.485824838082E+01

                                              INSTANTANEOUS             AVERAGES
 CPU TIME [s]                 =                        0.07                10.80
 ENERGY DRIFT PER ATOM [K]    =         -0.377407125679E-01  -0.225530775675E-01
 POTENTIAL ENERGY[hartree]    =          0.230138596250E+01   0.235594685527E+01
 KINETIC ENERGY [hartree]     =          0.255686241832E+01   0.250234116915E+01
 TEMPERATURE [K]              =                     598.734              585.967
 *******************************************************************************

 FOBSH| *** OFF-DIAGONAL GRADIENT CALCULATION
 FOBSH| Put former active state           3 in new active state           3
 RANDOM_NUMBER_HOPPING_PROBA   1.5105624017764302E-002
 FOBSH| ACTIVE STATE =            3

 ENERGY| Total FORCE_EVAL ( MIXED ) energy (a.u.):             2.285409260771546

 FOBSH| CASE1: no hop and no trivial crossing
 ENTER integrator.F
 STEP NUMBER                  =            7
 CPU TIME [s]                 =    7.4551071040332317E-002   9.2707327701417466     

 *******************************************************************************
 ENSEMBLE TYPE                =                                              NVE
 STEP NUMBER                  =                                                7
 TIME [fs]                    =                                         0.700000
 CONSERVED QUANTITY [hartree] =                               0.485823772434E+01

                                              INSTANTANEOUS             AVERAGES
 CPU TIME [s]                 =                        0.07                 9.27
 ENERGY DRIFT PER ATOM [K]    =         -0.414796510910E-01  -0.252568737851E-01
 POTENTIAL ENERGY[hartree]    =          0.228540926077E+01   0.234587005606E+01
 KINETIC ENERGY [hartree]     =          0.257282846357E+01   0.251241078264E+01
 TEMPERATURE [K]              =                     602.472              588.325
 *******************************************************************************

 FOBSH| *** OFF-DIAGONAL GRADIENT CALCULATION
 FOBSH| Put former active state           3 in new active state           3
 RANDOM_NUMBER_HOPPING_PROBA  0.24687190385287536     
 FOBSH| ACTIVE STATE =            3

 ENERGY| Total FORCE_EVAL ( MIXED ) energy (a.u.):             2.272333892703074

 FOBSH| CASE1: no hop and no trivial crossing
 ENTER integrator.F
 STEP NUMBER                  =            8
 CPU TIME [s]                 =    7.5300317257642746E-002   8.1213037135312334     

 *******************************************************************************
 ENSEMBLE TYPE                =                                              NVE
 STEP NUMBER                  =                                                8
 TIME [fs]                    =                                         0.800000
 CONSERVED QUANTITY [hartree] =                               0.485822960408E+01

                                              INSTANTANEOUS             AVERAGES
 CPU TIME [s]                 =                        0.08                 8.12
 ENERGY DRIFT PER ATOM [K]    =         -0.443287307079E-01  -0.276408559004E-01
 POTENTIAL ENERGY[hartree]    =          0.227233389270E+01   0.233667803564E+01
 KINETIC ENERGY [hartree]     =          0.258589571138E+01   0.252159639873E+01
 TEMPERATURE [K]              =                     605.532              590.476
 *******************************************************************************

 FOBSH| *** OFF-DIAGONAL GRADIENT CALCULATION
 FOBSH| Put former active state           3 in new active state           3
 RANDOM_NUMBER_HOPPING_PROBA  0.83365123518729989     
 FOBSH| ACTIVE STATE =            3

 ENERGY| Total FORCE_EVAL ( MIXED ) energy (a.u.):             2.262286855935997

 FOBSH| CASE1: no hop and no trivial crossing
 ENTER integrator.F
 STEP NUMBER                  =            9
 CPU TIME [s]                 =    7.4283391702920198E-002   7.2271903444391983     

 *******************************************************************************
 ENSEMBLE TYPE                =                                              NVE
 STEP NUMBER                  =                                                9
 TIME [fs]                    =                                         0.900000
 CONSERVED QUANTITY [hartree] =                               0.485822414527E+01

                                              INSTANTANEOUS             AVERAGES
 CPU TIME [s]                 =                        0.07                 7.23
 ENERGY DRIFT PER ATOM [K]    =         -0.462440122192E-01  -0.297078732692E-01
 POTENTIAL ENERGY[hartree]    =          0.226228685594E+01   0.232841234901E+01
 KINETIC ENERGY [hartree]     =          0.259593728934E+01   0.252985649769E+01
 TEMPERATURE [K]              =                     607.884              592.410
 *******************************************************************************

 FOBSH| *** OFF-DIAGONAL GRADIENT CALCULATION
 FOBSH| Put former active state           3 in new active state           3
 RANDOM_NUMBER_HOPPING_PROBA  0.47399308453094258     
 FOBSH| ACTIVE STATE =            3

 ENERGY| Total FORCE_EVAL ( MIXED ) energy (a.u.):             2.255352766656523

 FOBSH| CASE1: no hop and no trivial crossing
 ENTER integrator.F
 STEP NUMBER                  =           10
 CPU TIME [s]                 =    7.3552164249122143E-002   6.5118265264201911     

 *******************************************************************************
 ENSEMBLE TYPE                =                                              NVE
 STEP NUMBER                  =                                               10
 TIME [fs]                    =                                         1.000000
 CONSERVED QUANTITY [hartree] =                               0.485822137256E+01

                                              INSTANTANEOUS             AVERAGES
 CPU TIME [s]                 =                        0.07                 6.51
 ENERGY DRIFT PER ATOM [K]    =         -0.472168476583E-01  -0.314587707081E-01
 POTENTIAL ENERGY[hartree]    =          0.225535276666E+01   0.232110639077E+01
 KINETIC ENERGY [hartree]     =          0.260286860591E+01   0.253715770851E+01
 TEMPERATURE [K]              =                     609.507              594.119
 *******************************************************************************

 FOBSH| *** OFF-DIAGONAL GRADIENT CALCULATION
 FOBSH| Put former active state           3 in new active state           3
 RANDOM_NUMBER_HOPPING_PROBA  0.27416560636517739     
 FOBSH| ACTIVE STATE =            3

 ENERGY| Total FORCE_EVAL ( MIXED ) energy (a.u.):             2.251572980381613

 FOBSH| CASE1: no hop and no trivial crossing
 ENTER integrator.F
 STEP NUMBER                  =           11
 CPU TIME [s]                 =    7.4166606180369854E-002   5.9265847154892981     

 *******************************************************************************
 ENSEMBLE TYPE                =                                              NVE
 STEP NUMBER                  =                                               11
 TIME [fs]                    =                                         1.100000
 CONSERVED QUANTITY [hartree] =                               0.485822133511E+01

                                              INSTANTANEOUS             AVERAGES
 CPU TIME [s]                 =                        0.07                 5.93
 ENERGY DRIFT PER ATOM [K]    =         -0.472299897595E-01  -0.328925178946E-01
 POTENTIAL ENERGY[hartree]    =          0.225157298038E+01   0.231478517164E+01
 KINETIC ENERGY [hartree]     =          0.260664835472E+01   0.254347503999E+01
 TEMPERATURE [K]              =                     610.392              595.599
 *******************************************************************************

 FOBSH| *** OFF-DIAGONAL GRADIENT CALCULATION
 FOBSH| Put former active state           3 in new active state           3
 RANDOM_NUMBER_HOPPING_PROBA  0.45405030167718952     
 FOBSH| ACTIVE STATE =            3

 ENERGY| Total FORCE_EVAL ( MIXED ) energy (a.u.):             2.250945077302116

 FOBSH| CASE1: no hop and no trivial crossing
 ENTER integrator.F
 STEP NUMBER                  =           12
 CPU TIME [s]                 =    7.3189539834856987E-002   5.4388017841847613     

 *******************************************************************************
 ENSEMBLE TYPE                =                                              NVE
 STEP NUMBER                  =                                               12
 TIME [fs]                    =                                         1.200000
 CONSERVED QUANTITY [hartree] =                               0.485822400565E+01

                                              INSTANTANEOUS             AVERAGES
 CPU TIME [s]                 =                        0.07                 5.44
 ENERGY DRIFT PER ATOM [K]    =         -0.462930004509E-01  -0.340092247743E-01
 POTENTIAL ENERGY[hartree]    =          0.225094507730E+01   0.230946516378E+01
 KINETIC ENERGY [hartree]     =          0.260727892835E+01   0.254879203068E+01
 TEMPERATURE [K]              =                     610.540              596.844
 *******************************************************************************

 FOBSH| *** OFF-DIAGONAL GRADIENT CALCULATION
 FOBSH| Put former active state           3 in new active state           3
 RANDOM_NUMBER_HOPPING_PROBA  0.54219999671392127     
 FOBSH| ACTIVE STATE =            3

 ENERGY| Total FORCE_EVAL ( MIXED ) energy (a.u.):             2.253423167408531

 FOBSH| CASE1: no hop and no trivial crossing
 ENTER integrator.F
 STEP NUMBER                  =           13
 CPU TIME [s]                 =    7.2046740911900997E-002   5.0259744731637728     

 *******************************************************************************
 ENSEMBLE TYPE                =                                              NVE
 STEP NUMBER                  =                                               13
 TIME [fs]                    =                                         1.300000
 CONSERVED QUANTITY [hartree] =                               0.485822935873E+01

                                              INSTANTANEOUS             AVERAGES
 CPU TIME [s]                 =                        0.07                 5.03
 ENERGY DRIFT PER ATOM [K]    =         -0.444148138616E-01  -0.348096547041E-01
 POTENTIAL ENERGY[hartree]    =          0.225342316741E+01   0.230515424098E+01
 KINETIC ENERGY [hartree]     =          0.260480619133E+01   0.255310081227E+01
 TEMPERATURE [K]              =                     609.961              597.853
 *******************************************************************************

 FOBSH| *** OFF-DIAGONAL GRADIENT CALCULATION
 FOBSH| Put former active state           3 in new active state           3
 RANDOM_NUMBER_HOPPING_PROBA  0.78530724540909458     
 FOBSH| ACTIVE STATE =            3

 ENERGY| Total FORCE_EVAL ( MIXED ) energy (a.u.):             2.258918534532973

 FOBSH| CASE1: no hop and no trivial crossing
 ENTER integrator.F
 STEP NUMBER                  =           14
 CPU TIME [s]                 =    7.3651893064379692E-002   4.6722371460138161     

 *******************************************************************************
 ENSEMBLE TYPE                =                                              NVE
 STEP NUMBER                  =                                               14
 TIME [fs]                    =                                         1.400000
 CONSERVED QUANTITY [hartree] =                               0.485823729337E+01

                                              INSTANTANEOUS             AVERAGES
 CPU TIME [s]                 =                        0.07                 4.67
 ENERGY DRIFT PER ATOM [K]    =         -0.416308611254E-01  -0.352968837342E-01
 POTENTIAL ENERGY[hartree]    =          0.225891853453E+01   0.230185169052E+01
 KINETIC ENERGY [hartree]     =          0.259931875884E+01   0.255640209417E+01
 TEMPERATURE [K]              =                     608.676              598.626
 *******************************************************************************

 FOBSH| *** OFF-DIAGONAL GRADIENT CALCULATION
 FOBSH| Put former active state           3 in new active state           3
 RANDOM_NUMBER_HOPPING_PROBA  0.35091300797413705     
 FOBSH| ACTIVE STATE =            3

 ENERGY| Total FORCE_EVAL ( MIXED ) energy (a.u.):             2.267300976443297

 FOBSH| CASE1: no hop and no trivial crossing
 ENTER integrator.F
 STEP NUMBER                  =           15
 CPU TIME [s]                 =    7.2037439793348312E-002   4.3655571655991183     

 *******************************************************************************
 ENSEMBLE TYPE                =                                              NVE
 STEP NUMBER                  =                                               15
 TIME [fs]                    =                                         1.500000
 CONSERVED QUANTITY [hartree] =                               0.485824771442E+01

                                              INSTANTANEOUS             AVERAGES
 CPU TIME [s]                 =                        0.07                 4.37
 ENERGY DRIFT PER ATOM [K]    =         -0.379745244620E-01  -0.354753931160E-01
 POTENTIAL ENERGY[hartree]    =          0.226730097644E+01   0.229954830958E+01
 KINETIC ENERGY [hartree]     =          0.259094673798E+01   0.255870507042E+01
 TEMPERATURE [K]              =                     606.715              599.165
 *******************************************************************************

 FOBSH| *** OFF-DIAGONAL GRADIENT CALCULATION
 FOBSH| Put former active state           3 in new active state           3
 RANDOM_NUMBER_HOPPING_PROBA  0.51277297843638336     
 FOBSH| ACTIVE STATE =            3

 ENERGY| Total FORCE_EVAL ( MIXED ) energy (a.u.):             2.278400547013296

 FOBSH| CASE1: no hop and no trivial crossing
 ENTER integrator.F
 STEP NUMBER                  =           16
 CPU TIME [s]                 =    7.3155773337930441E-002   4.0972820785827944     

 *******************************************************************************
 ENSEMBLE TYPE                =                                              NVE
 STEP NUMBER                  =                                               16
 TIME [fs]                    =                                         1.600000
 CONSERVED QUANTITY [hartree] =                               0.485826044102E+01

                                              INSTANTANEOUS             AVERAGES
 CPU TIME [s]                 =                        0.07                 4.10
 ENERGY DRIFT PER ATOM [K]    =         -0.335092610314E-01  -0.353525098607E-01
 POTENTIAL ENERGY[hartree]    =          0.227840054701E+01   0.229822657442E+01
 KINETIC ENERGY [hartree]     =          0.257985989401E+01   0.256002724690E+01
 TEMPERATURE [K]              =                     604.119              599.475
 *******************************************************************************

 FOBSH| *** OFF-DIAGONAL GRADIENT CALCULATION
 FOBSH| Put former active state           3 in new active state           3
 RANDOM_NUMBER_HOPPING_PROBA  0.56672912879839055     
 FOBSH| ACTIVE STATE =            3

 ENERGY| Total FORCE_EVAL ( MIXED ) energy (a.u.):             2.292010105020010

 FOBSH| CASE1: no hop and no trivial crossing
 ENTER integrator.F
 STEP NUMBER                  =           17
 CPU TIME [s]                 =    7.1452235803008080E-002   3.8604685584192775     

 *******************************************************************************
 ENSEMBLE TYPE                =                                              NVE
 STEP NUMBER                  =                                               17
 TIME [fs]                    =                                         1.700000
 CONSERVED QUANTITY [hartree] =                               0.485827533008E+01

                                              INSTANTANEOUS             AVERAGES
 CPU TIME [s]                 =                        0.07                 3.86
 ENERGY DRIFT PER ATOM [K]    =         -0.282852735424E-01  -0.349367900773E-01
 POTENTIAL ENERGY[hartree]    =          0.229201010502E+01   0.229786089975E+01
 KINETIC ENERGY [hartree]     =          0.256626522506E+01   0.256039418679E+01
 TEMPERATURE [K]              =                     600.935              599.561
 *******************************************************************************

 FOBSH| *** OFF-DIAGONAL GRADIENT CALCULATION
 FOBSH| Put former active state           3 in new active state           3
 RANDOM_NUMBER_HOPPING_PROBA   4.1701011982236642E-002
 FOBSH| ACTIVE STATE =            3

 ENERGY| Total FORCE_EVAL ( MIXED ) energy (a.u.):             2.307888090183387

 FOBSH| CASE1: no hop and no trivial crossing
 ENTER integrator.F
 STEP NUMBER                  =           18
 CPU TIME [s]                 =    7.3143967892974615E-002   3.6500616367233718     

 *******************************************************************************
 ENSEMBLE TYPE                =                                              NVE
 STEP NUMBER                  =                                               18
 TIME [fs]                    =                                         1.800000
 CONSERVED QUANTITY [hartree] =                               0.485829217258E+01

                                              INSTANTANEOUS             AVERAGES
 CPU TIME [s]                 =                        0.07                 3.65
 ENERGY DRIFT PER ATOM [K]    =         -0.223759021988E-01  -0.342389629729E-01
 POTENTIAL ENERGY[hartree]    =          0.230788809018E+01   0.229841796589E+01
 KINETIC ENERGY [hartree]     =          0.255040408240E+01   0.255983918099E+01
 TEMPERATURE [K]              =                     597.221              599.431
 *******************************************************************************

 FOBSH| *** OFF-DIAGONAL GRADIENT CALCULATION
 FOBSH| Put former active state           3 in new active state           3
 RANDOM_NUMBER_HOPPING_PROBA  0.23087441688912894     
 FOBSH| ACTIVE STATE =            3

 ENERGY| Total FORCE_EVAL ( MIXED ) energy (a.u.):             2.325761822280420

 FOBSH| CASE1: no hop and no trivial crossing
 ENTER integrator.F
 STEP NUMBER                  =           19
 CPU TIME [s]                 =    7.1746946312487125E-002   3.4617292845964829     

 *******************************************************************************
 ENSEMBLE TYPE                =                                              NVE
 STEP NUMBER                  =                                               19
 TIME [fs]                    =                                         1.900000
 CONSERVED QUANTITY [hartree] =                               0.485831069608E+01

                                              INSTANTANEOUS             AVERAGES
 CPU TIME [s]                 =                        0.07                 3.46
 ENERGY DRIFT PER ATOM [K]    =         -0.158767353125E-01  -0.332725299382E-01
 POTENTIAL ENERGY[hartree]    =          0.232576182228E+01   0.229985711622E+01
 KINETIC ENERGY [hartree]     =          0.253254887380E+01   0.255840284903E+01
 TEMPERATURE [K]              =                     593.040              599.094
 *******************************************************************************

 FOBSH| *** OFF-DIAGONAL GRADIENT CALCULATION
 FOBSH| Put former active state           3 in new active state           3
 RANDOM_NUMBER_HOPPING_PROBA  0.10818778711908025     
 FOBSH| ACTIVE STATE =            3

 ENERGY| Total FORCE_EVAL ( MIXED ) energy (a.u.):             2.345331280429511

 FOBSH| CASE1: no hop and no trivial crossing
 ENTER integrator.F
 STEP NUMBER                  =           20
 CPU TIME [s]                 =    7.1154695935547352E-002   3.2922005551634363     

 *******************************************************************************
 ENSEMBLE TYPE                =                                              NVE
 STEP NUMBER                  =                                               20
 TIME [fs]                    =                                         2.000000
 CONSERVED QUANTITY [hartree] =                               0.485833069106E+01

                                              INSTANTANEOUS             AVERAGES
 CPU TIME [s]                 =                        0.07                 3.29
 ENERGY DRIFT PER ATOM [K]    =         -0.886128253725E-02  -0.320519675681E-01
 POTENTIAL ENERGY[hartree]    =          0.234533128043E+01   0.230213082443E+01
 KINETIC ENERGY [hartree]     =          0.251299941063E+01   0.255613267711E+01
 TEMPERATURE [K]              =                     588.462              598.563
 *******************************************************************************

 FOBSH| *** OFF-DIAGONAL GRADIENT CALCULATION
 FOBSH| Put former active state           3 in new active state           3
 RANDOM_NUMBER_HOPPING_PROBA  0.22324767369672568     
 FOBSH| ACTIVE STATE =            3

 ENERGY| Total FORCE_EVAL ( MIXED ) energy (a.u.):             2.366273089923269

 FOBSH| CASE1: no hop and no trivial crossing
 ENTER integrator.F
 STEP NUMBER                  =           21
 CPU TIME [s]                 =    7.0734046865254641E-002   3.1387973881016178     

 *******************************************************************************
 ENSEMBLE TYPE                =                                              NVE
 STEP NUMBER                  =                                               21
 TIME [fs]                    =                                         2.100000
 CONSERVED QUANTITY [hartree] =                               0.485835186657E+01

                                              INSTANTANEOUS             AVERAGES
 CPU TIME [s]                 =                        0.07                 3.14
 ENERGY DRIFT PER ATOM [K]    =         -0.143162753214E-02  -0.305938561379E-01
 POTENTIAL ENERGY[hartree]    =          0.236627308992E+01   0.230518521803E+01
 KINETIC ENERGY [hartree]     =          0.249207877664E+01   0.255308249137E+01
 TEMPERATURE [K]              =                     583.563              597.849
 *******************************************************************************

 FOBSH| *** OFF-DIAGONAL GRADIENT CALCULATION
 FOBSH| Put former active state           3 in new active state           3
 RANDOM_NUMBER_HOPPING_PROBA  0.53970963304387498     
 FOBSH| ACTIVE STATE =            3

 ENERGY| Total FORCE_EVAL ( MIXED ) energy (a.u.):             2.388245065988285

 FOBSH| CASE1: no hop and no trivial crossing
 ENTER integrator.F
 STEP NUMBER                  =           22
 CPU TIME [s]                 =    7.1799855213612318E-002   2.9993884093339811     

 *******************************************************************************
 ENSEMBLE TYPE                =                                              NVE
 STEP NUMBER                  =                                               22
 TIME [fs]                    =                                         2.200000
 CONSERVED QUANTITY [hartree] =                               0.485837393037E+01

                                              INSTANTANEOUS             AVERAGES
 CPU TIME [s]                 =                        0.07                 3.00
 ENERGY DRIFT PER ATOM [K]    =          0.630969268448E-02  -0.289164221005E-01
 POTENTIAL ENERGY[hartree]    =          0.238824506599E+01   0.230896066566E+01
 KINETIC ENERGY [hartree]     =          0.247012886438E+01   0.254931187197E+01
 TEMPERATURE [K]              =                     578.423              596.966
 *******************************************************************************

 FOBSH| *** OFF-DIAGONAL GRADIENT CALCULATION
 FOBSH| Put former active state           3 in new active state           3
 RANDOM_NUMBER_HOPPING_PROBA   3.7455510299360881E-002
 FOBSH| ACTIVE STATE =            3

 ENERGY| Total FORCE_EVAL ( MIXED ) energy (a.u.):             2.410890789300058

 FOBSH| CASE1: no hop and no trivial crossing
 ENTER integrator.F
 STEP NUMBER                  =           23
 CPU TIME [s]                 =    7.1159120649099350E-002   2.8720740924346382     

 *******************************************************************************
 ENSEMBLE TYPE                =                                              NVE
 STEP NUMBER                  =                                               23
 TIME [fs]                    =                                         2.300000
 CONSERVED QUANTITY [hartree] =                               0.485839659006E+01

                                              INSTANTANEOUS             AVERAGES
 CPU TIME [s]                 =                        0.07                 2.87
 ENERGY DRIFT PER ATOM [K]    =          0.142600898834E-01  -0.270391824490E-01
 POTENTIAL ENERGY[hartree]    =          0.241089078930E+01   0.231339241017E+01
 KINETIC ENERGY [hartree]     =          0.244750580076E+01   0.254488552104E+01
 TEMPERATURE [K]              =                     573.126              595.929
 *******************************************************************************

 FOBSH| *** OFF-DIAGONAL GRADIENT CALCULATION
 FOBSH| Put former active state           3 in new active state           3
 RANDOM_NUMBER_HOPPING_PROBA  0.50599131459514457     
 FOBSH| ACTIVE STATE =            3

 ENERGY| Total FORCE_EVAL ( MIXED ) energy (a.u.):             2.433844362870786

 FOBSH| CASE1: no hop and no trivial crossing
 ENTER integrator.F
 STEP NUMBER                  =           24
 CPU TIME [s]                 =    7.1193421259522438E-002   2.7553707311356748     

 *******************************************************************************
 ENSEMBLE TYPE                =                                              NVE
 STEP NUMBER                  =                                               24
 TIME [fs]                    =                                         2.400000
 CONSERVED QUANTITY [hartree] =                               0.485841951999E+01

                                              INSTANTANEOUS             AVERAGES
 CPU TIME [s]                 =                        0.07                 2.76
 ENERGY DRIFT PER ATOM [K]    =          0.223053020326E-01  -0.249831622623E-01
 POTENTIAL ENERGY[hartree]    =          0.243384436287E+01   0.231841124153E+01
 KINETIC ENERGY [hartree]     =          0.242457515712E+01   0.253987258921E+01
 TEMPERATURE [K]              =                     567.756              594.755
 *******************************************************************************

 FOBSH| *** OFF-DIAGONAL GRADIENT CALCULATION
 FOBSH| Put former active state           3 in new active state           3
 RANDOM_NUMBER_HOPPING_PROBA  0.97666355388844839     
 FOBSH| ATTEMPTED_HOP
 FOBSH| ACTIVE STATE =            3

 ENERGY| Total FORCE_EVAL ( MIXED ) energy (a.u.):             2.456735447634066

 FOBSH| Active state before the attempt to hop:           3

 ENERGY| Total FORCE_EVAL ( MIXED ) energy (a.u.):             2.458997003627764

 FOBSH| Active state after the attempt to hop:           4
 FOBSH| Possible trivial crossing
 FOBSH| CASE5: successful hop and maybe a crossing, final overlap is :   3.1814795854232122E-004
 FOBSH| We were localized on molecule           4
 FOBSH| And now on molecule           1
 Before,    After
           3           4
 ENTER integrator.F
 STEP NUMBER                  =           25
 CPU TIME [s]                 =    8.9477723930031061E-002   2.6487350108474494     

 *******************************************************************************
 ENSEMBLE TYPE                =                                              NVE
 STEP NUMBER                  =                                               25
 TIME [fs]                    =                                         2.500000
 CONSERVED QUANTITY [hartree] =                               0.485844240804E+01

                                              INSTANTANEOUS             AVERAGES
 CPU TIME [s]                 =                        0.09                 2.65
 ENERGY DRIFT PER ATOM [K]    =          0.303358190130E-01  -0.227704030113E-01
 POTENTIAL ENERGY[hartree]    =          0.245899700363E+01   0.232403467202E+01
 KINETIC ENERGY [hartree]     =          0.239944540441E+01   0.253425550182E+01
 TEMPERATURE [K]              =                     561.872              593.440
 *******************************************************************************

 FOBSH| *** OFF-DIAGONAL GRADIENT CALCULATION
 FOBSH| Put former active state           4 in new active state           4
 RANDOM_NUMBER_HOPPING_PROBA  0.12840580700626780     
 FOBSH| ACTIVE STATE =            4

 ENERGY| Total FORCE_EVAL ( MIXED ) energy (a.u.):             2.481490751298167

 FOBSH| CASE1: no hop and no trivial crossing
 ENTER integrator.F
 STEP NUMBER                  =           26
 CPU TIME [s]                 =    7.1335653774440289E-002   2.5496042663446414     

 *******************************************************************************
 ENSEMBLE TYPE                =                                              NVE
 STEP NUMBER                  =                                               26
 TIME [fs]                    =                                         2.600000
 CONSERVED QUANTITY [hartree] =                               0.485846495038E+01

                                              INSTANTANEOUS             AVERAGES
 CPU TIME [s]                 =                        0.07                 2.55
 ENERGY DRIFT PER ATOM [K]    =          0.382450405120E-01  -0.204236551834E-01
 POTENTIAL ENERGY[hartree]    =          0.248149075130E+01   0.233009067507E+01
 KINETIC ENERGY [hartree]     =          0.237697419908E+01   0.252820622095E+01
 TEMPERATURE [K]              =                     556.610              592.023
 *******************************************************************************

 FOBSH| *** OFF-DIAGONAL GRADIENT CALCULATION
 FOBSH| Put former active state           4 in new active state           4
 RANDOM_NUMBER_HOPPING_PROBA  0.80710812468977888     
 FOBSH| ACTIVE STATE =            4

 ENERGY| Total FORCE_EVAL ( MIXED ) energy (a.u.):             2.503185162291163

 FOBSH| CASE1: no hop and no trivial crossing
 ENTER integrator.F
 STEP NUMBER                  =           27
 CPU TIME [s]                 =    7.1348994038999081E-002   2.4578170340370247     

 *******************************************************************************
 ENSEMBLE TYPE                =                                              NVE
 STEP NUMBER                  =                                               27
 TIME [fs]                    =                                         2.700000
 CONSERVED QUANTITY [hartree] =                               0.485848685800E+01

                                              INSTANTANEOUS             AVERAGES
 CPU TIME [s]                 =                        0.07                 2.46
 ENERGY DRIFT PER ATOM [K]    =          0.459315623561E-01  -0.179660545338E-01
 POTENTIAL ENERGY[hartree]    =          0.250318516229E+01   0.233650158200E+01
 KINETIC ENERGY [hartree]     =          0.235530169570E+01   0.252180234964E+01
 TEMPERATURE [K]              =                     551.535              590.524
 *******************************************************************************

 FOBSH| *** OFF-DIAGONAL GRADIENT CALCULATION
 FOBSH| Put former active state           4 in new active state           4
 RANDOM_NUMBER_HOPPING_PROBA  0.36348714134779886     
 FOBSH| ACTIVE STATE =            4

 ENERGY| Total FORCE_EVAL ( MIXED ) energy (a.u.):             2.523726287318732

 FOBSH| CASE1: no hop and no trivial crossing
 ENTER integrator.F
 STEP NUMBER                  =           28
 CPU TIME [s]                 =    7.1119022089987993E-002   2.3725778193246305     

 *******************************************************************************
 ENSEMBLE TYPE                =                                              NVE
 STEP NUMBER                  =                                               28
 TIME [fs]                    =                                         2.800000
 CONSERVED QUANTITY [hartree] =                               0.485850785201E+01

                                              INSTANTANEOUS             AVERAGES
 CPU TIME [s]                 =                        0.07                 2.37
 ENERGY DRIFT PER ATOM [K]    =          0.532975380069E-01  -0.154209262288E-01
 POTENTIAL ENERGY[hartree]    =          0.252372628732E+01   0.234318817862E+01
 KINETIC ENERGY [hartree]     =          0.233478156469E+01   0.251512303589E+01
 TEMPERATURE [K]              =                     546.730              588.960
 *******************************************************************************

 FOBSH| *** OFF-DIAGONAL GRADIENT CALCULATION
 FOBSH| Put former active state           4 in new active state           4
 RANDOM_NUMBER_HOPPING_PROBA  0.85522378722358217     
 FOBSH| ACTIVE STATE =            4

 ENERGY| Total FORCE_EVAL ( MIXED ) energy (a.u.):             2.542774915335434

 FOBSH| CASE1: no hop and no trivial crossing
 ENTER integrator.F
 STEP NUMBER                  =           29
 CPU TIME [s]                 =    7.0280093234032393E-002   2.2931882425628860     

 *******************************************************************************
 ENSEMBLE TYPE                =                                              NVE
 STEP NUMBER                  =                                               29
 TIME [fs]                    =                                         2.900000
 CONSERVED QUANTITY [hartree] =                               0.485852774215E+01

                                              INSTANTANEOUS             AVERAGES
 CPU TIME [s]                 =                        0.07                 2.29
 ENERGY DRIFT PER ATOM [K]    =          0.602762063574E-01  -0.128106802776E-01
 POTENTIAL ENERGY[hartree]    =          0.254277491534E+01   0.235007047988E+01
 KINETIC ENERGY [hartree]     =          0.231575282682E+01   0.250824820110E+01
 TEMPERATURE [K]              =                     542.274              587.350
 *******************************************************************************

 FOBSH| *** OFF-DIAGONAL GRADIENT CALCULATION
 FOBSH| Put former active state           4 in new active state           4
 RANDOM_NUMBER_HOPPING_PROBA  0.67034729650063396     
 FOBSH| ACTIVE STATE =            4

 ENERGY| Total FORCE_EVAL ( MIXED ) energy (a.u.):             2.560009721109353

 FOBSH| CASE1: no hop and no trivial crossing
 ENTER integrator.F
 STEP NUMBER                  =           30
 CPU TIME [s]                 =    7.0527014788240194E-002   2.2190995349703977     

 *******************************************************************************
 ENSEMBLE TYPE                =                                              NVE
 STEP NUMBER                  =                                               30
 TIME [fs]                    =                                         3.000000
 CONSERVED QUANTITY [hartree] =                               0.485854637927E+01

                                              INSTANTANEOUS             AVERAGES
 CPU TIME [s]                 =                        0.07                 2.22
 ENERGY DRIFT PER ATOM [K]    =          0.668152390850E-01  -0.101564829655E-01
 POTENTIAL ENERGY[hartree]    =          0.256000972111E+01   0.235706845459E+01
 KINETIC ENERGY [hartree]     =          0.229853665816E+01   0.250125781633E+01
 TEMPERATURE [K]              =                     538.242              585.713
 *******************************************************************************

 FOBSH| *** OFF-DIAGONAL GRADIENT CALCULATION
 FOBSH| Put former active state           4 in new active state           4
 FOBSH| *** WARNING: difference between exact flux and sum of Tully's proba is  0.19257414346879259      ***
 RANDOM_NUMBER_HOPPING_PROBA  0.95194410928626894     
 FOBSH| ATTEMPTED_HOP
 FOBSH| ACTIVE STATE =            4

 ENERGY| Total FORCE_EVAL ( MIXED ) energy (a.u.):             2.575128594189581

 FOBSH| Active state before the attempt to hop:           4

 ENERGY| Total FORCE_EVAL ( MIXED ) energy (a.u.):             2.575249274874881

 FOBSH| Active state after the attempt to hop:           5
 FOBSH| Possible trivial crossing
 FOBSH| CASE5: successful hop and maybe a crossing, final overlap is :   5.7240137237815694E-002
 FOBSH| We were localized on molecule           1
 FOBSH| And now on molecule           1
 ENTER integrator.F
 STEP NUMBER                  =           31
 CPU TIME [s]                 =    8.9383661281317472E-002   2.1503990229159111     

 *******************************************************************************
 ENSEMBLE TYPE                =                                              NVE
 STEP NUMBER                  =                                               31
 TIME [fs]                    =                                         3.100000
 CONSERVED QUANTITY [hartree] =                               0.485856429570E+01

                                              INSTANTANEOUS             AVERAGES
 CPU TIME [s]                 =                        0.09                 2.15
 ENERGY DRIFT PER ATOM [K]    =          0.731014126950E-01  -0.747074439578E-02
 POTENTIAL ENERGY[hartree]    =          0.257524927487E+01   0.236410654557E+01
 KINETIC ENERGY [hartree]     =          0.228331502083E+01   0.249422740357E+01
 TEMPERATURE [K]              =                     534.678              584.067
 *******************************************************************************

 FOBSH| *** OFF-DIAGONAL GRADIENT CALCULATION
 FOBSH| Put former active state           5 in new active state           5
 FOBSH| *** WARNING: difference between exact flux and sum of Tully's proba is  0.20850063005934699      ***
 RANDOM_NUMBER_HOPPING_PROBA  0.40303366510919353     
 FOBSH| ACTIVE STATE =            5

 ENERGY| Total FORCE_EVAL ( MIXED ) energy (a.u.):             2.587994695131746

 FOBSH| CASE1: no hop and no trivial crossing
 ENTER integrator.F
 STEP NUMBER                  =           32
 CPU TIME [s]                 =    7.0788316894322634E-002   2.0854111883527366     

 *******************************************************************************
 ENSEMBLE TYPE                =                                              NVE
 STEP NUMBER                  =                                               32
 TIME [fs]                    =                                         3.200000
 CONSERVED QUANTITY [hartree] =                               0.485857864398E+01

                                              INSTANTANEOUS             AVERAGES
 CPU TIME [s]                 =                        0.07                 2.09
 ENERGY DRIFT PER ATOM [K]    =          0.781356596633E-01  -0.479554426893E-02
 POTENTIAL ENERGY[hartree]    =          0.258799469513E+01   0.237110305024E+01
 KINETIC ENERGY [hartree]     =          0.227058394885E+01   0.248723854561E+01
 TEMPERATURE [K]              =                     531.697              582.430
 *******************************************************************************

 FOBSH| *** OFF-DIAGONAL GRADIENT CALCULATION
 FOBSH| Put former active state           5 in new active state           5
 RANDOM_NUMBER_HOPPING_PROBA   6.3990691283266954E-002
 FOBSH| ACTIVE STATE =            5

 ENERGY| Total FORCE_EVAL ( MIXED ) energy (a.u.):             2.598152748460145

 FOBSH| CASE1: no hop and no trivial crossing
 ENTER integrator.F
 STEP NUMBER                  =           33
 CPU TIME [s]                 =    7.0954362861812115E-002   2.0243670421257391     

 *******************************************************************************
 ENSEMBLE TYPE                =                                              NVE
 STEP NUMBER                  =                                               33
 TIME [fs]                    =                                         3.300000
 CONSERVED QUANTITY [hartree] =                               0.485859162532E+01

                                              INSTANTANEOUS             AVERAGES
 CPU TIME [s]                 =                        0.07                 2.02
 ENERGY DRIFT PER ATOM [K]    =          0.826903001009E-01  -0.214445807591E-02
 POTENTIAL ENERGY[hartree]    =          0.259815274846E+01   0.237798334413E+01
 KINETIC ENERGY [hartree]     =          0.226043887686E+01   0.248036582838E+01
 TEMPERATURE [K]              =                     529.321              580.821
 *******************************************************************************

 FOBSH| *** OFF-DIAGONAL GRADIENT CALCULATION
 FOBSH| Put former active state           5 in new active state           5
 RANDOM_NUMBER_HOPPING_PROBA  0.44240387110505380     
 FOBSH| ACTIVE STATE =            5

 ENERGY| Total FORCE_EVAL ( MIXED ) energy (a.u.):             2.605516752332888

 FOBSH| CASE1: no hop and no trivial crossing
 ENTER integrator.F
 STEP NUMBER                  =           34
 CPU TIME [s]                 =    7.0762358140200377E-002   1.9669080808320465     

 *******************************************************************************
 ENSEMBLE TYPE                =                                              NVE
 STEP NUMBER                  =                                               34
 TIME [fs]                    =                                         3.400000
 CONSERVED QUANTITY [hartree] =                               0.485860179261E+01

                                              INSTANTANEOUS             AVERAGES
 CPU TIME [s]                 =                        0.07                 1.97
 ENERGY DRIFT PER ATOM [K]    =          0.862576033681E-01   0.455602554798E-03
 POTENTIAL ENERGY[hartree]    =          0.260551675233E+01   0.238467550319E+01
 KINETIC ENERGY [hartree]     =          0.225308504028E+01   0.247368109932E+01
 TEMPERATURE [K]              =                     527.599              579.255
 *******************************************************************************

 FOBSH| *** OFF-DIAGONAL GRADIENT CALCULATION
 FOBSH| Put former active state           5 in new active state           5
 RANDOM_NUMBER_HOPPING_PROBA  0.37053832739404691     
 FOBSH| ACTIVE STATE =            5

 ENERGY| Total FORCE_EVAL ( MIXED ) energy (a.u.):             2.609921623498362

 FOBSH| CASE1: no hop and no trivial crossing
 ENTER integrator.F
 STEP NUMBER                  =           35
 CPU TIME [s]                 =    7.0832354016602039E-002   1.9127344886373197     

 *******************************************************************************
 ENSEMBLE TYPE                =                                              NVE
 STEP NUMBER                  =                                               35
 TIME [fs]                    =                                         3.500000
 CONSERVED QUANTITY [hartree] =                               0.485860926345E+01

                                              INSTANTANEOUS             AVERAGES
 CPU TIME [s]                 =                        0.07                 1.91
 ENERGY DRIFT PER ATOM [K]    =          0.888788273153E-01   0.298198040510E-02
 POTENTIAL ENERGY[hartree]    =          0.260992162350E+01   0.239111110663E+01
 KINETIC ENERGY [hartree]     =          0.224868763995E+01   0.246725271476E+01
 TEMPERATURE [K]              =                     526.569              577.750
 *******************************************************************************

 FOBSH| *** OFF-DIAGONAL GRADIENT CALCULATION
 FOBSH| Put former active state           5 in new active state           5
 RANDOM_NUMBER_HOPPING_PROBA  0.79109232280105435     
 FOBSH| ACTIVE STATE =            5

 ENERGY| Total FORCE_EVAL ( MIXED ) energy (a.u.):             2.611245105836916

 FOBSH| CASE1: no hop and no trivial crossing
 ENTER integrator.F
 STEP NUMBER                  =           36
 CPU TIME [s]                 =    7.1060789749026299E-002   1.8615768858904225     

 *******************************************************************************
 ENSEMBLE TYPE                =                                              NVE
 STEP NUMBER                  =                                               36
 TIME [fs]                    =                                         3.600000
 CONSERVED QUANTITY [hartree] =                               0.485861403946E+01

                                              INSTANTANEOUS             AVERAGES
 CPU TIME [s]                 =                        0.07                 1.86
 ENERGY DRIFT PER ATOM [K]    =          0.905545414662E-01   0.541455154568E-02
 POTENTIAL ENERGY[hartree]    =          0.261124510584E+01   0.239722593994E+01
 KINETIC ENERGY [hartree]     =          0.224736893362E+01   0.246114483195E+01
 TEMPERATURE [K]              =                     526.260              576.320
 *******************************************************************************

 FOBSH| *** OFF-DIAGONAL GRADIENT CALCULATION
 FOBSH| Put former active state           5 in new active state           5
 RANDOM_NUMBER_HOPPING_PROBA   9.1827710182444136E-002
 FOBSH| ACTIVE STATE =            5

 ENERGY| Total FORCE_EVAL ( MIXED ) energy (a.u.):             2.609407836867799

 FOBSH| CASE1: no hop and no trivial crossing
 ENTER integrator.F
 STEP NUMBER                  =           37
 CPU TIME [s]                 =    7.1421680971980095E-002   1.8131943127845189     

 *******************************************************************************
 ENSEMBLE TYPE                =                                              NVE
 STEP NUMBER                  =                                               37
 TIME [fs]                    =                                         3.700000
 CONSERVED QUANTITY [hartree] =                               0.485861609046E+01

                                              INSTANTANEOUS             AVERAGES
 CPU TIME [s]                 =                        0.07                 1.81
 ENERGY DRIFT PER ATOM [K]    =          0.912741567252E-01   0.773508141540E-02
 POTENTIAL ENERGY[hartree]    =          0.260940783687E+01   0.240296058580E+01
 KINETIC ENERGY [hartree]     =          0.224920825359E+01   0.245541681632E+01
 TEMPERATURE [K]              =                     526.691              574.978
 *******************************************************************************

 FOBSH| *** OFF-DIAGONAL GRADIENT CALCULATION
 FOBSH| Put former active state           5 in new active state           5
 RANDOM_NUMBER_HOPPING_PROBA  0.93278955296152910     
 FOBSH| ACTIVE STATE =            5

 ENERGY| Total FORCE_EVAL ( MIXED ) energy (a.u.):             2.604373897098673

 FOBSH| CASE1: no hop and no trivial crossing
 ENTER integrator.F
 STEP NUMBER                  =           38
 CPU TIME [s]                 =    7.0552942343056202E-002   1.7673353293518486     

 *******************************************************************************
 ENSEMBLE TYPE                =                                              NVE
 STEP NUMBER                  =                                               38
 TIME [fs]                    =                                         3.800000
 CONSERVED QUANTITY [hartree] =                               0.485861542217E+01

                                              INSTANTANEOUS             AVERAGES
 CPU TIME [s]                 =                        0.07                 1.77
 ENERGY DRIFT PER ATOM [K]    =          0.910396820532E-01   0.992730774797E-02
 POTENTIAL ENERGY[hartree]    =          0.260437389710E+01   0.240826093610E+01
 KINETIC ENERGY [hartree]     =          0.225424152507E+01   0.245012272971E+01
 TEMPERATURE [K]              =                     527.870              573.739
 *******************************************************************************

 FOBSH| *** OFF-DIAGONAL GRADIENT CALCULATION
 FOBSH| Put former active state           5 in new active state           5
 RANDOM_NUMBER_HOPPING_PROBA  0.66895875268229765     
 FOBSH| ACTIVE STATE =            5

 ENERGY| Total FORCE_EVAL ( MIXED ) energy (a.u.):             2.596151167605233

 FOBSH| CASE1: no hop and no trivial crossing
 ENTER integrator.F
 STEP NUMBER                  =           39
 CPU TIME [s]                 =    7.1039055939763784E-002   1.7238405531105132     

 *******************************************************************************
 ENSEMBLE TYPE                =                                              NVE
 STEP NUMBER                  =                                               39
 TIME [fs]                    =                                         3.900000
 CONSERVED QUANTITY [hartree] =                               0.485861201378E+01

                                              INSTANTANEOUS             AVERAGES
 CPU TIME [s]                 =                        0.07                 1.72
 ENERGY DRIFT PER ATOM [K]    =          0.898438095705E-01   0.119764488203E-01
 POTENTIAL ENERGY[hartree]    =          0.259615116761E+01   0.241307863435E+01
 KINETIC ENERGY [hartree]     =          0.226246084617E+01   0.244531088654E+01
 TEMPERATURE [K]              =                     529.794              572.612
 *******************************************************************************

 FOBSH| *** OFF-DIAGONAL GRADIENT CALCULATION
 FOBSH| Put former active state           5 in new active state           5
 RANDOM_NUMBER_HOPPING_PROBA   7.0495669884397497E-002
 FOBSH| ACTIVE STATE =            5

 ENERGY| Total FORCE_EVAL ( MIXED ) energy (a.u.):             2.584791375855165

 FOBSH| CASE1: no hop and no trivial crossing
 ENTER integrator.F
 STEP NUMBER                  =           40
 CPU TIME [s]                 =    7.1326371748000383E-002   1.6825276985764503     

 *******************************************************************************
 ENSEMBLE TYPE                =                                              NVE
 STEP NUMBER                  =                                               40
 TIME [fs]                    =                                         4.000000
 CONSERVED QUANTITY [hartree] =                               0.485860591493E+01

                                              INSTANTANEOUS             AVERAGES
 CPU TIME [s]                 =                        0.07                 1.68
 ENERGY DRIFT PER ATOM [K]    =          0.877039632707E-01   0.138696366816E-01
 POTENTIAL ENERGY[hartree]    =          0.258479137586E+01   0.241737145288E+01
 KINETIC ENERGY [hartree]     =          0.227381453907E+01   0.244102347786E+01
 TEMPERATURE [K]              =                     532.453              571.608
 *******************************************************************************

 FOBSH| *** OFF-DIAGONAL GRADIENT CALCULATION
 FOBSH| Put former active state           5 in new active state           5
 RANDOM_NUMBER_HOPPING_PROBA  0.44837893062802447     
 FOBSH| ACTIVE STATE =            5

 ENERGY| Total FORCE_EVAL ( MIXED ) energy (a.u.):             2.570389490415309

 FOBSH| CASE1: no hop and no trivial crossing
 ENTER integrator.F
 STEP NUMBER                  =           41
 CPU TIME [s]                 =    7.1082005277276039E-002   1.6432241450813485     

 *******************************************************************************
 ENSEMBLE TYPE                =                                              NVE
 STEP NUMBER                  =                                               41
 TIME [fs]                    =                                         4.100000
 CONSERVED QUANTITY [hartree] =                               0.485859719314E+01

                                              INSTANTANEOUS             AVERAGES
 CPU TIME [s]                 =                        0.07                 1.64
 ENERGY DRIFT PER ATOM [K]    =          0.846438298384E-01   0.155958365147E-01
 POTENTIAL ENERGY[hartree]    =          0.257038949042E+01   0.242110360014E+01
 KINETIC ENERGY [hartree]     =          0.228820770272E+01   0.243729626383E+01
 TEMPERATURE [K]              =                     535.823              570.735
 *******************************************************************************

 FOBSH| *** OFF-DIAGONAL GRADIENT CALCULATION
 FOBSH| Put former active state           5 in new active state           5
 RANDOM_NUMBER_HOPPING_PROBA  0.53199482212190596     
 FOBSH| ACTIVE STATE =            5

 ENERGY| Total FORCE_EVAL ( MIXED ) energy (a.u.):             2.553082637020823

 FOBSH| CASE1: no hop and no trivial crossing
 ENTER integrator.F
 STEP NUMBER                  =           42
 CPU TIME [s]                 =    7.1344474796205759E-002   1.6057984386459878     

 *******************************************************************************
 ENSEMBLE TYPE                =                                              NVE
 STEP NUMBER                  =                                               42
 TIME [fs]                    =                                         4.200000
 CONSERVED QUANTITY [hartree] =                               0.485858594452E+01

                                              INSTANTANEOUS             AVERAGES
 CPU TIME [s]                 =                        0.07                 1.61
 ENERGY DRIFT PER ATOM [K]    =          0.806971308779E-01   0.171458673329E-01
 POTENTIAL ENERGY[hartree]    =          0.255308263702E+01   0.242424595816E+01
 KINETIC ENERGY [hartree]     =          0.230550330750E+01   0.243415833630E+01
 TEMPERATURE [K]              =                     539.874              570.000
 *******************************************************************************

 FOBSH| *** OFF-DIAGONAL GRADIENT CALCULATION
 FOBSH| Put former active state           5 in new active state           5
 RANDOM_NUMBER_HOPPING_PROBA  0.57730720845980099     
 FOBSH| ACTIVE STATE =            5

 ENERGY| Total FORCE_EVAL ( MIXED ) energy (a.u.):             2.533048458187761

 FOBSH| CASE1: no hop and no trivial crossing
 ENTER integrator.F
 STEP NUMBER                  =           43
 CPU TIME [s]                 =    7.0611310191452503E-002   1.5700964124028589     

 *******************************************************************************
 ENSEMBLE TYPE                =                                              NVE
 STEP NUMBER                  =                                               43
 TIME [fs]                    =                                         4.300000
 CONSERVED QUANTITY [hartree] =                               0.485857230339E+01

                                              INSTANTANEOUS             AVERAGES
 CPU TIME [s]                 =                        0.07                 1.57
 ENERGY DRIFT PER ATOM [K]    =          0.759109961870E-01   0.185124982365E-01
 POTENTIAL ENERGY[hartree]    =          0.253304845819E+01   0.242677624886E+01
 KINETIC ENERGY [hartree]     =          0.232552384521E+01   0.243163195278E+01
 TEMPERATURE [K]              =                     544.562              569.409
 *******************************************************************************

 FOBSH| *** OFF-DIAGONAL GRADIENT CALCULATION
 FOBSH| Put former active state           5 in new active state           5
 RANDOM_NUMBER_HOPPING_PROBA   1.6928433561957019E-002
 FOBSH| ACTIVE STATE =            5

 ENERGY| Total FORCE_EVAL ( MIXED ) energy (a.u.):             2.510502864052761

 FOBSH| CASE1: no hop and no trivial crossing
 ENTER integrator.F
 STEP NUMBER                  =           44
 CPU TIME [s]                 =    7.0730631705373526E-002   1.5360199173870070     

 *******************************************************************************
 ENSEMBLE TYPE                =                                              NVE
 STEP NUMBER                  =                                               44
 TIME [fs]                    =                                         4.400000
 CONSERVED QUANTITY [hartree] =                               0.485855645269E+01

                                              INSTANTANEOUS             AVERAGES
 CPU TIME [s]                 =                        0.07                 1.54
 ENERGY DRIFT PER ATOM [K]    =          0.703496075934E-01   0.196906143582E-01
 POTENTIAL ENERGY[hartree]    =          0.251050286405E+01   0.242867912648E+01
 KINETIC ENERGY [hartree]     =          0.234805358864E+01   0.242973244451E+01
 TEMPERATURE [K]              =                     549.837              568.964
 *******************************************************************************

 FOBSH| *** OFF-DIAGONAL GRADIENT CALCULATION
 FOBSH| Put former active state           5 in new active state           5
 RANDOM_NUMBER_HOPPING_PROBA  0.13144936141126493     
 FOBSH| ACTIVE STATE =            5

 ENERGY| Total FORCE_EVAL ( MIXED ) energy (a.u.):             2.485697310053898

 FOBSH| CASE1: no hop and no trivial crossing
 ENTER integrator.F
 STEP NUMBER                  =           45
 CPU TIME [s]                 =    7.1034864056855440E-002   1.5034646939796703     

 *******************************************************************************
 ENSEMBLE TYPE                =                                              NVE
 STEP NUMBER                  =                                               45
 TIME [fs]                    =                                         4.500000
 CONSERVED QUANTITY [hartree] =                               0.485853857620E+01

                                              INSTANTANEOUS             AVERAGES
 CPU TIME [s]                 =                        0.07                 1.50
 ENERGY DRIFT PER ATOM [K]    =          0.640774488304E-01   0.206769884576E-01
 POTENTIAL ENERGY[hartree]    =          0.248569731005E+01   0.242994619722E+01
 KINETIC ENERGY [hartree]     =          0.237284126615E+01   0.242846819610E+01
 TEMPERATURE [K]              =                     555.642              568.668
 *******************************************************************************

 FOBSH| *** OFF-DIAGONAL GRADIENT CALCULATION
 FOBSH| Put former active state           5 in new active state           5
 RANDOM_NUMBER_HOPPING_PROBA   6.6529961963703879E-002
 FOBSH| ACTIVE STATE =            5

 ENERGY| Total FORCE_EVAL ( MIXED ) energy (a.u.):             2.458915776901822

 FOBSH| CASE1: no hop and no trivial crossing
 ENTER integrator.F
 STEP NUMBER                  =           46
 CPU TIME [s]                 =    7.0603905245661736E-002   1.4723155463984960     

 *******************************************************************************
 ENSEMBLE TYPE                =                                              NVE
 STEP NUMBER                  =                                               46
 TIME [fs]                    =                                         4.600000
 CONSERVED QUANTITY [hartree] =                               0.485851892450E+01

                                              INSTANTANEOUS             AVERAGES
 CPU TIME [s]                 =                        0.07                 1.47
 ENERGY DRIFT PER ATOM [K]    =          0.571824389930E-01   0.214705852084E-01
 POTENTIAL ENERGY[hartree]    =          0.245891577690E+01   0.243057597069E+01
 KINETIC ENERGY [hartree]     =          0.239960314760E+01   0.242784069505E+01
 TEMPERATURE [K]              =                     561.909              568.521
 *******************************************************************************

 FOBSH| *** OFF-DIAGONAL GRADIENT CALCULATION
 FOBSH| Put former active state           5 in new active state           5
 RANDOM_NUMBER_HOPPING_PROBA  0.13624522447097273     
 FOBSH| ACTIVE STATE =            5

 ENERGY| Total FORCE_EVAL ( MIXED ) energy (a.u.):             2.430471017952408

 FOBSH| CASE1: no hop and no trivial crossing
 ENTER integrator.F
 STEP NUMBER                  =           47
 CPU TIME [s]                 =    7.1451848838478327E-002   1.4425099358121127     

 *******************************************************************************
 ENSEMBLE TYPE                =                                              NVE
 STEP NUMBER                  =                                               47
 TIME [fs]                    =                                         4.700000
 CONSERVED QUANTITY [hartree] =                               0.485849771617E+01

                                              INSTANTANEOUS             AVERAGES
 CPU TIME [s]                 =                        0.07                 1.44
 ENERGY DRIFT PER ATOM [K]    =          0.497412683604E-01   0.220720891052E-01
 POTENTIAL ENERGY[hartree]    =          0.243047101795E+01   0.243057373766E+01
 KINETIC ENERGY [hartree]     =          0.242802669822E+01   0.242784465256E+01
 TEMPERATURE [K]              =                     568.565              568.522
 *******************************************************************************

 FOBSH| *** OFF-DIAGONAL GRADIENT CALCULATION
 FOBSH| Put former active state           5 in new active state           5
 RANDOM_NUMBER_HOPPING_PROBA  0.53373438748921098     
 FOBSH| ACTIVE STATE =            5

 ENERGY| Total FORCE_EVAL ( MIXED ) energy (a.u.):             2.400700700976742

 FOBSH| CASE1: no hop and no trivial crossing
 ENTER integrator.F
 STEP NUMBER                  =           48
 CPU TIME [s]                 =    7.1039657108485699E-002   1.4139376383391205     

 *******************************************************************************
 ENSEMBLE TYPE                =                                              NVE
 STEP NUMBER                  =                                               48
 TIME [fs]                    =                                         4.800000
 CONSERVED QUANTITY [hartree] =                               0.485847524708E+01

                                              INSTANTANEOUS             AVERAGES
 CPU TIME [s]                 =                        0.07                 1.41
 ENERGY DRIFT PER ATOM [K]    =          0.418577486737E-01   0.224842903462E-01
[...]
 KINETIC ENERGY [hartree]     =          0.237628425948E+01   0.246620915262E+01
 TEMPERATURE [K]              =                     556.448              577.506
 *******************************************************************************

 FOBSH| *** OFF-DIAGONAL GRADIENT CALCULATION
 FOBSH| New map:            1           2           3           4           5           6           0           0
 FOBSH! New map again:           1           2           3           4           5           6           0           0
 FOBSH| Put former active state           1 in new active state           1
 RANDOM_NUMBER_HOPPING_PROBA  0.82195477349837154     
 FOBSH| ACTIVE STATE =            1

 ENERGY| Total FORCE_EVAL ( MIXED ) energy (a.u.):             2.512860676721931

 FOBSH| CASE1: no hop and no trivial crossing
 ENTER integrator.F
 STEP NUMBER                  =          191
 CPU TIME [s]                 =    7.2436963673681021E-002  0.41073287141397180     

 *******************************************************************************
 ENSEMBLE TYPE                =                                              NVE
 STEP NUMBER                  =                                              191
 TIME [fs]                    =                                        19.100000
 CONSERVED QUANTITY [hartree] =                               0.485841953525E+01

                                              INSTANTANEOUS             AVERAGES
 CPU TIME [s]                 =                        0.07                 0.41
 ENERGY DRIFT PER ATOM [K]    =          0.223106547083E-01   0.908402506230E-02
 POTENTIAL ENERGY[hartree]    =          0.251286067672E+01   0.239280424745E+01
 KINETIC ENERGY [hartree]     =          0.234555885853E+01   0.246557747569E+01
 TEMPERATURE [K]              =                     549.253              577.358
 *******************************************************************************

 FOBSH| *** OFF-DIAGONAL GRADIENT CALCULATION
 FOBSH| Put former active state           1 in new active state           1
 RANDOM_NUMBER_HOPPING_PROBA  0.47798716356543131     
 FOBSH| ACTIVE STATE =            1

 ENERGY| Total FORCE_EVAL ( MIXED ) energy (a.u.):             2.543097486434002

 FOBSH| CASE1: no hop and no trivial crossing
 ENTER integrator.F
 STEP NUMBER                  =          192
 CPU TIME [s]                 =    7.2719462215900421E-002  0.40897238490773186     

 *******************************************************************************
 ENSEMBLE TYPE                =                                              NVE
 STEP NUMBER                  =                                              192
 TIME [fs]                    =                                        19.200000
 CONSERVED QUANTITY [hartree] =                               0.485844361406E+01

                                              INSTANTANEOUS             AVERAGES
 CPU TIME [s]                 =                        0.07                 0.41
 ENERGY DRIFT PER ATOM [K]    =          0.307589635593E-01   0.919691536697E-02
 POTENTIAL ENERGY[hartree]    =          0.254309748643E+01   0.239358702474E+01
 KINETIC ENERGY [hartree]     =          0.231534612762E+01   0.246479502075E+01
 TEMPERATURE [K]              =                     542.178              577.174
 *******************************************************************************

 FOBSH| *** OFF-DIAGONAL GRADIENT CALCULATION
 FOBSH| Put former active state           1 in new active state           1
 RANDOM_NUMBER_HOPPING_PROBA  0.19068212869155288     
 FOBSH| ACTIVE STATE =            1

 ENERGY| Total FORCE_EVAL ( MIXED ) energy (a.u.):             2.572442035266354

 FOBSH| CASE1: no hop and no trivial crossing
 ENTER integrator.F
 STEP NUMBER                  =          193
 CPU TIME [s]                 =    7.5475970748811960E-002  0.40724442421260793     

 *******************************************************************************
 ENSEMBLE TYPE                =                                              NVE
 STEP NUMBER                  =                                              193
 TIME [fs]                    =                                        19.300000
 CONSERVED QUANTITY [hartree] =                               0.485846700209E+01

                                              INSTANTANEOUS             AVERAGES
 CPU TIME [s]                 =                        0.08                 0.41
 ENERGY DRIFT PER ATOM [K]    =          0.389649066462E-01   0.935115366376E-02
 POTENTIAL ENERGY[hartree]    =          0.257244203527E+01   0.239451373464E+01
 KINETIC ENERGY [hartree]     =          0.228602496683E+01   0.246386875104E+01
 TEMPERATURE [K]              =                     535.312              576.958
 *******************************************************************************

 FOBSH| *** OFF-DIAGONAL GRADIENT CALCULATION
 FOBSH| Put former active state           1 in new active state           1
 RANDOM_NUMBER_HOPPING_PROBA   3.9019510409808292E-002
 FOBSH| ACTIVE STATE =            1

 ENERGY| Total FORCE_EVAL ( MIXED ) energy (a.u.):             2.600525242719000

 FOBSH| CASE1: no hop and no trivial crossing
 ENTER integrator.F
 STEP NUMBER                  =          194
 CPU TIME [s]                 =    7.3445803951472044E-002  0.40552381276796290     

 *******************************************************************************
 ENSEMBLE TYPE                =                                              NVE
 STEP NUMBER                  =                                              194
 TIME [fs]                    =                                        19.400000
 CONSERVED QUANTITY [hartree] =                               0.485848935984E+01

                                              INSTANTANEOUS             AVERAGES
 CPU TIME [s]                 =                        0.07                 0.41
 ENERGY DRIFT PER ATOM [K]    =          0.468093622456E-01   0.954423721315E-02
 POTENTIAL ENERGY[hartree]    =          0.260052524272E+01   0.239557564963E+01
 KINETIC ENERGY [hartree]     =          0.225796411712E+01   0.246280738695E+01
 TEMPERATURE [K]              =                     528.741              576.709
 *******************************************************************************

 FOBSH| *** OFF-DIAGONAL GRADIENT CALCULATION
 FOBSH| Put former active state           1 in new active state           1
 RANDOM_NUMBER_HOPPING_PROBA  0.20961789847363788     
 FOBSH| ACTIVE STATE =            1

 ENERGY| Total FORCE_EVAL ( MIXED ) energy (a.u.):             2.626993302712771

 FOBSH| CASE1: no hop and no trivial crossing
 ENTER integrator.F
 STEP NUMBER                  =          195
 CPU TIME [s]                 =    7.2606600355356932E-002  0.40381654501200082     

 *******************************************************************************
 ENSEMBLE TYPE                =                                              NVE
 STEP NUMBER                  =                                              195
 TIME [fs]                    =                                        19.500000
 CONSERVED QUANTITY [hartree] =                               0.485851047575E+01

                                              INSTANTANEOUS             AVERAGES
 CPU TIME [s]                 =                        0.07                 0.40
 ENERGY DRIFT PER ATOM [K]    =          0.542181035160E-01   0.977333396342E-02
 POTENTIAL ENERGY[hartree]    =          0.262699330271E+01   0.239676240682E+01
 KINETIC ENERGY [hartree]     =          0.223151717303E+01   0.246162128329E+01
 TEMPERATURE [K]              =                     522.548              576.431
 *******************************************************************************

 FOBSH| *** OFF-DIAGONAL GRADIENT CALCULATION
 FOBSH| Put former active state           1 in new active state           1
 RANDOM_NUMBER_HOPPING_PROBA  0.25814674508164709     
 FOBSH| ACTIVE STATE =            1

 ENERGY| Total FORCE_EVAL ( MIXED ) energy (a.u.):             2.651511532649462

 FOBSH| CASE1: no hop and no trivial crossing
 ENTER integrator.F
 STEP NUMBER                  =          196
 CPU TIME [s]                 =    7.3008887004107237E-002  0.40212875083849114     

 *******************************************************************************
 ENSEMBLE TYPE                =                                              NVE
 STEP NUMBER                  =                                              196
 TIME [fs]                    =                                        19.600000
 CONSERVED QUANTITY [hartree] =                               0.485853014730E+01

                                              INSTANTANEOUS             AVERAGES
 CPU TIME [s]                 =                        0.07                 0.40
 ENERGY DRIFT PER ATOM [K]    =          0.611200772839E-01   0.100353071436E-01
 POTENTIAL ENERGY[hartree]    =          0.265151153265E+01   0.239806214726E+01
 KINETIC ENERGY [hartree]     =          0.220701861465E+01   0.246032229008E+01
 TEMPERATURE [K]              =                     516.812              576.127
 *******************************************************************************

 FOBSH| *** OFF-DIAGONAL GRADIENT CALCULATION
 FOBSH| Put former active state           1 in new active state           1
 RANDOM_NUMBER_HOPPING_PROBA  0.71866270817859179     
 FOBSH| ACTIVE STATE =            1

 ENERGY| Total FORCE_EVAL ( MIXED ) energy (a.u.):             2.673767810000242

 FOBSH| CASE1: no hop and no trivial crossing
 ENTER integrator.F
 STEP NUMBER                  =          197
 CPU TIME [s]                 =    7.2362459730356932E-002  0.40045481027449042     

 *******************************************************************************
 ENSEMBLE TYPE                =                                              NVE
 STEP NUMBER                  =                                              197
 TIME [fs]                    =                                        19.700000
 CONSERVED QUANTITY [hartree] =                               0.485854821261E+01

                                              INSTANTANEOUS             AVERAGES
 CPU TIME [s]                 =                        0.07                 0.40
 ENERGY DRIFT PER ATOM [K]    =          0.674584860591E-01   0.103267953615E-01
 POTENTIAL ENERGY[hartree]    =          0.267376781000E+01   0.239946166839E+01
 KINETIC ENERGY [hartree]     =          0.218478040261E+01   0.245892360030E+01
 TEMPERATURE [K]              =                     511.604              575.800
 *******************************************************************************

 FOBSH| *** OFF-DIAGONAL GRADIENT CALCULATION
 FOBSH| Put former active state           1 in new active state           1
 RANDOM_NUMBER_HOPPING_PROBA  0.40493253623739994     
 FOBSH| ACTIVE STATE =            1

 ENERGY| Total FORCE_EVAL ( MIXED ) energy (a.u.):             2.693475793839402

 FOBSH| CASE1: no hop and no trivial crossing
 ENTER integrator.F
 STEP NUMBER                  =          198
 CPU TIME [s]                 =    7.4670167174190283E-002  0.39880943328913537     

 *******************************************************************************
 ENSEMBLE TYPE                =                                              NVE
 STEP NUMBER                  =                                              198
 TIME [fs]                    =                                        19.800000
 CONSERVED QUANTITY [hartree] =                               0.485856446385E+01

                                              INSTANTANEOUS             AVERAGES
 CPU TIME [s]                 =                        0.07                 0.40
 ENERGY DRIFT PER ATOM [K]    =          0.731604066959E-01   0.106441368329E-01
 POTENTIAL ENERGY[hartree]    =          0.269347579384E+01   0.240094658822E+01
 KINETIC ENERGY [hartree]     =          0.216508867001E+01   0.245743958550E+01
 TEMPERATURE [K]              =                     506.993              575.452
 *******************************************************************************

 FOBSH| *** OFF-DIAGONAL GRADIENT CALCULATION
 FOBSH| Put former active state           1 in new active state           1
 RANDOM_NUMBER_HOPPING_PROBA  0.39979889317373046     
 FOBSH| ACTIVE STATE =            1

 ENERGY| Total FORCE_EVAL ( MIXED ) energy (a.u.):             2.710378315831187

 FOBSH| CASE1: no hop and no trivial crossing
 ENTER integrator.F
 STEP NUMBER                  =          199
 CPU TIME [s]                 =    7.4851009994745255E-002  0.39718150151378667     

 *******************************************************************************
 ENSEMBLE TYPE                =                                              NVE
 STEP NUMBER                  =                                              199
 TIME [fs]                    =                                        19.900000
 CONSERVED QUANTITY [hartree] =                               0.485857868178E+01

                                              INSTANTANEOUS             AVERAGES
 CPU TIME [s]                 =                        0.07                 0.40
 ENERGY DRIFT PER ATOM [K]    =          0.781489206558E-01   0.109833568521E-01
 POTENTIAL ENERGY[hartree]    =          0.271037831583E+01   0.240250152152E+01
 KINETIC ENERGY [hartree]     =          0.214820036595E+01   0.245588561957E+01
 TEMPERATURE [K]              =                     503.038              575.088
 *******************************************************************************

 FOBSH| *** OFF-DIAGONAL GRADIENT CALCULATION
 FOBSH| Put former active state           1 in new active state           1
 RANDOM_NUMBER_HOPPING_PROBA  0.61636574408134326     
 FOBSH| ACTIVE STATE =            1

 ENERGY| Total FORCE_EVAL ( MIXED ) energy (a.u.):             2.724250608163955

 FOBSH| CASE1: no hop and no trivial crossing
 ENTER integrator.F
 STEP NUMBER                  =          200
 CPU TIME [s]                 =    7.2418821044266224E-002  0.39555768811143910     

 *******************************************************************************
 ENSEMBLE TYPE                =                                              NVE
 STEP NUMBER                  =                                              200
 TIME [fs]                    =                                        20.000000
 CONSERVED QUANTITY [hartree] =                               0.485859066816E+01

                                              INSTANTANEOUS             AVERAGES
 CPU TIME [s]                 =                        0.07                 0.40
 ENERGY DRIFT PER ATOM [K]    =          0.823544698799E-01   0.113402124172E-01
 POTENTIAL ENERGY[hartree]    =          0.272425060816E+01   0.240411026695E+01
 KINETIC ENERGY [hartree]     =          0.213434005999E+01   0.245427789177E+01
 TEMPERATURE [K]              =                     499.793              574.712
 *******************************************************************************


 -------------------------------------------------------------------------------
 -                                                                             -
 -                                DBCSR STATISTICS                             -
 -                                                                             -
 -------------------------------------------------------------------------------
 COUNTER                                    TOTAL       BLAS       SMM       ACC
 flops total                                    0       0.0%      0.0%      0.0%
 flops max/rank                                 0       0.0%      0.0%      0.0%
 matmuls inhomo. stacks                         0       0.0%      0.0%      0.0%
 matmuls total                                  0       0.0%      0.0%      0.0%
 number of processed stacks                     0       0.0%      0.0%      0.0%
 average stack size                                     0.0       0.0       0.0
 marketing flops                     0.000000E+00
 -------------------------------------------------------------------------------

 MEMORY| Estimated peak process memory [MiB]                                 122

 -------------------------------------------------------------------------------
 -                                                                             -
 -                           R E F E R E N C E S                               -
 -                                                                             -
 -------------------------------------------------------------------------------
 
 CP2K version 4.0 (Development Version), the CP2K developers group (2015).
 CP2K is freely available from https://www.cp2k.org/ .

 Borstnik, U; VandeVondele, J; Weber, V; Hutter, J. 
 PARALLEL COMPUTING, 40 (5-6), 47-58 (2014). 
 Sparse matrix multiplication: The distributed block-compressed sparse
 row library.
 http://dx.doi.org/10.1016/j.parco.2014.03.012


 Hutter, J; Iannuzzi, M; Schiffmann, F; VandeVondele, J. 
 WILEY INTERDISCIPLINARY REVIEWS-COMPUTATIONAL MOLECULAR SCIENCE, 4 (1), 15-25 (2014). 
 CP2K: atomistic simulations of condensed matter systems.
 http://dx.doi.org/10.1002/wcms.1159


 Frigo, M; Johnson, SG. 
 PROCEEDINGS OF THE IEEE, 93 (2), 216-231 (2005). 
 The design and implementation of FFTW3.
 http://dx.doi.org/10.1109/JPROC.2004.840301


 -------------------------------------------------------------------------------
 -                                                                             -
 -                                T I M I N G                                  -
 -                                                                             -
 -------------------------------------------------------------------------------
 SUBROUTINE                       CALLS  ASD         SELF TIME        TOTAL TIME
                                MAXIMUM       AVERAGE  MAXIMUM  AVERAGE  MAXIMUM
 CP2K                                 1  1.0    0.051    0.051   88.723   88.723
 qs_mol_dyn_low                       1  2.0   12.286   12.286   79.177   79.177
 parser_read_line               2346106  3.0   19.079   19.079   56.985   56.985
 parser_read_line_low              2509  4.3   37.874   37.874   37.906   37.906
 velocity_verlet                    200  3.0   10.289   10.289   14.321   14.321
 topology_control                     3  4.0    0.007    0.007    8.870    8.870
 connectivity_control                 3  5.0    0.019    0.019    8.468    8.468
 read_topology_psf                  150  6.0    3.828    3.828    8.427    8.427
 fist_create_force_env                2  2.0    0.000    0.000    6.501    6.501
 fist_init                            2  3.0    0.002    0.002    6.501    6.501
 fist_calc_energy_force             418  4.0    0.020    0.020    4.389    4.389
 force_nonbond                      209  5.0    3.279    3.279    3.279    3.279
 mixed_create_force_env               1  2.0    0.001    0.001    2.983    2.983
 mixed_init                           1  3.0    0.000    0.000    2.982    2.982
 -------------------------------------------------------------------------------

 The number of warnings for this run is : 1
 
 -------------------------------------------------------------------------------
  **** **** ******  **  PROGRAM ENDED AT                 2021-01-14 05:48:43.341
 ***** ** ***  *** **   PROGRAM RAN ON                   bulstake.phys.ucl.ac.uk
 **    ****   ******    PROGRAM RAN BY                                 sgiannini
 ***** **    ** ** **   PROGRAM PROCESS ID                                 12735
  **** **  *******  **  PROGRAM STOPPED IN /scratch/sgiannini/FOB-SH-REGTESTS_/3
                                           2-XXXX_code_extension_V2/run-fssh-MTS
                                           1_SIMPLEST
