#     Step Nr.          Time[fs]        Kin.[a.u.]          Temp[K]            Pot.[a.u.]        Cons Qty[a.u.]        UsedTime[s]
         0            0.000000         0.000000000         0.000000000         0.488002325         0.488002325         0.000000000
         1            0.100000         0.000868008         0.739797156         0.487133694         0.488001701         0.137993968
         2            0.200000         0.003462067         2.950696495         0.484537771         0.487999838         0.047207542
         3            0.300000         0.007752410         6.607326474         0.480244348         0.487996758         0.032075560
         4            0.400000         0.013689830        11.667749323         0.474302670         0.487992499         0.044085243
         5            0.500000         0.021206291        18.073978626         0.466780823         0.487987114         0.033727608
         6            0.600000         0.030215768        25.752694734         0.457764902         0.487980670         0.019522003
         7            0.700000         0.040615304        34.616148984         0.447357942         0.487973246         0.033023167
         8            0.800000         0.052286282        44.563245266         0.435678650         0.487964933         0.037994050
         9            0.900000         0.065095887        55.480785287         0.422859946         0.487955833         0.032430835
        10            1.000000         0.078898738        67.244861806         0.409047322         0.487946060         0.045208168
        11            1.100000         0.093538676        79.722382241         0.394397056         0.487935733         0.032356185
        12            1.200000         0.108850685        92.772703436         0.379074294         0.487924978         0.046813664
        13            1.300000         0.124662911       106.249356988         0.363251018         0.487913929         0.019051270
        14            1.400000         0.140798776       120.001846276         0.347103944         0.487902720         0.021508399
        15            1.500000         0.157079130       133.877481447         0.330812358         0.487891487         0.019565060
        16            1.600000         0.173324430       147.723241324         0.314555938         0.487880368         0.020141856
        17            1.700000         0.189356941       161.387641636         0.298512557         0.487869498         0.019950171
        18            1.800000         0.205002883       174.722573020         0.282856126         0.487859009         0.033306067
        19            1.900000         0.220094545       187.585094253         0.267754482         0.487849027         0.046822440
        20            2.000000         0.234472294       199.839153041         0.253367378         0.487839672         0.027982088
        21            2.100000         0.247986502       211.357220580         0.239844555         0.487831057         0.045397879
        22            2.200000         0.260499324       222.021814331         0.227323959         0.487823283         0.037695132
        23            2.300000         0.271886336       231.726888290         0.215930105         0.487816442         0.047181297
        24            2.400000         0.282037996       240.379078998         0.205772617         0.487810613         0.035650306
        25            2.500000         0.290860908       247.898787813         0.196944955         0.487805863         0.032719301
        26            2.600000         0.298278894       254.221086848         0.189523352         0.487802246         0.026697583
        27            2.700000         0.304233829       259.296437797         0.183565970         0.487799798         0.031721563
        28            2.800000         0.308686260       263.091215131         0.179112285         0.487798545         0.021407796
        29            2.900000         0.311615778       265.588022939         0.176182716         0.487798493         0.019876934
        30            3.000000         0.313021147       266.785809311         0.174778490         0.487799636         0.021294895
        31            3.100000         0.312920205       266.699777227         0.174881748         0.487801953         0.018662897
        32            3.200000         0.311349513       265.361087107         0.176455893         0.487805406         0.034693961
        33            3.300000         0.308363770       262.816358720         0.179446174         0.487809944         0.045814772
        34            3.400000         0.304035001       259.126978214         0.183780503         0.487815504         0.049451566
        35            3.500000         0.298451526       254.368220277         0.189370480         0.487822007         0.032533669
        36            3.600000         0.291716727       248.628196028         0.196112637         0.487829364         0.040103348
        37            3.700000         0.283947623       242.006641197         0.203889852         0.487837475         0.033546338
        38            3.800000         0.275273283       234.613559883         0.212572949         0.487846232         0.057405585
        39            3.900000         0.265833083       226.567741387         0.222022434         0.487855517         0.033741704
        40            4.000000         0.255774842       217.995170131         0.232090365         0.487865207         0.046407646
        41            4.100000         0.245252851       209.027348610         0.242622322         0.487875173         0.033089698
        42            4.200000         0.234425834       199.799554829         0.253459451         0.487885285         0.043058597
        43            4.300000         0.223454847       190.449056967         0.264440562         0.487895409         0.032395698
        44            4.400000         0.212501165       181.113307697         0.275404248         0.487905413         0.043774159
        45            4.500000         0.201724160       171.928139208         0.286191005         0.487915165         0.046962804
        46            4.600000         0.191279219       163.025986952         0.296645319         0.487924539         0.033305313
        47            4.700000         0.181315723       154.534166251         0.306617690         0.487933413         0.019428479
        48            4.800000         0.171975102       146.573218353         0.315966571         0.487941673         0.020405160
        49            4.900000         0.163389007       139.255347089         0.324560205         0.487949211         0.019796137
        50            5.000000         0.155677602       132.682968639         0.332278329         0.487955931         0.021589707
        51            5.100000         0.148948020       126.947391229         0.339013726         0.487961746         0.018348659
        52            5.200000         0.143292984       122.127642307         0.344673598         0.487966582         0.046842026
        53            5.300000         0.138789624       118.289459428         0.349180753         0.487970377         0.033547881
        54            5.400000         0.135498498       115.484454881         0.352474587         0.487973085         0.044181209
        55            5.500000         0.133462828       113.749466634         0.354511843         0.487974670         0.036007321
        56            5.600000         0.132707967       113.106103664         0.355267149         0.487975115         0.045490327
        57            5.700000         0.133241101       113.560490491         0.354733315         0.487974416         0.047582509
        58            5.800000         0.135051187       115.103214615         0.352921397         0.487972584         0.032412320
        59            5.900000         0.138109129       117.709477957         0.349860515         0.487969644         0.020214101
        60            6.000000         0.142368191       121.339447345         0.345597447         0.487965637         0.019075305
        61            6.100000         0.147764637       125.938802334         0.340195981         0.487960618         0.019446638
        62            6.200000         0.154218602       131.439472616         0.333736051         0.487954653         0.020194723
        63            6.300000         0.161635158       137.760553565         0.326312665         0.487947823         0.020483961
        64            6.400000         0.169905597       144.809393100         0.318034621         0.487940218         0.032010578
        65            6.500000         0.178908883       152.482832492         0.309023059         0.487931941         0.033318312
        66            6.600000         0.188513267       160.668584039         0.299409835         0.487923102         0.033193774
        67            6.700000         0.198578046       169.246727133         0.289335772         0.487913817         0.017949997
        68            6.800000         0.208955436       178.091306782         0.278948775         0.487904211         0.021276490
        69            6.900000         0.219492539       187.072008590         0.268401872         0.487894411         0.019585259
        70            7.000000         0.230033377       196.055893820         0.257851170         0.487884548         0.019886584
        71            7.100000         0.240420976       204.909173817         0.247453776         0.487874752         0.020459749
        72            7.200000         0.250499454       213.498993054         0.237365701         0.487865155         0.046754170
        73            7.300000         0.260116112       221.695205604         0.227739772         0.487855884         0.043729445
        74            7.400000         0.269123466       229.372112182         0.218723598         0.487847064         0.033249730
        75            7.500000         0.277381227       236.410146318         0.210457586         0.487838813         0.045815564
        76            7.600000         0.284758197       242.697488009         0.203073045         0.487831242         0.033242180
        77            7.700000         0.291134036       248.131572525         0.196690418         0.487824453         0.045886135
        78            7.800000         0.296400898       252.620483804         0.191417642         0.487818540         0.032589098
        79            7.900000         0.300464909       256.084213148         0.187348674         0.487813584         0.019261009
        80            8.000000         0.303247460       258.455762262         0.184562193         0.487809653         0.021692273
        81            8.100000         0.304686309       259.682083814         0.183120494         0.487806803         0.018320532
        82            8.200000         0.304736479       259.724843388         0.183068599         0.487805078         0.020330980
        83            8.300000         0.303370926       258.560991240         0.184433579         0.487804505         0.019789109
        84            8.400000         0.300580983       256.183142107         0.187224114         0.487805097         0.041397861
        85            8.500000         0.296376571       252.599750352         0.191430280         0.487806852         0.046872652
        86            8.600000         0.290786162       247.835082055         0.197023590         0.487809752         0.021096831
        87            8.700000         0.283856505       241.928982538         0.203957261         0.487813767         0.020401685
        88            8.800000         0.275652126       234.936445844         0.212166722         0.487818848         0.019553987
        89            8.900000         0.266254592       226.926990892         0.221570348         0.487824941         0.020940041
        90            9.000000         0.255761538       217.983831867         0.232070429         0.487831967         0.021300780
        91            9.100000         0.244285509       208.202889563         0.243554334         0.487839843         0.031704690
        92            9.200000         0.231952609       197.691641908         0.255895864         0.487848473         0.033131868
        93            9.300000         0.218900949       186.567800112         0.268956801         0.487857750         0.047693317
        94            9.400000         0.205278953       174.957865380         0.282588607         0.487867560         0.047318769
        95            9.500000         0.191243532       162.995571066         0.296634248         0.487877780         0.034755396
        96            9.600000         0.176958133       150.820221715         0.310930150         0.487888283         0.044424244
        97            9.700000         0.162590703       138.574958297         0.325308235         0.487898939         0.031044748
        98            9.800000         0.148311593       126.404968979         0.339598019         0.487909612         0.033732587
        99            9.900000         0.134291418       114.455668390         0.353628751         0.487920168         0.039236930
       100           10.000000         0.120698913       102.870868656         0.367231562         0.487930475         0.019609995
       101           10.100000         0.107698806        91.790965335         0.380241595         0.487940401         0.018455670
       102           10.200000         0.095449731        81.351161194         0.392500090         0.487949821         0.019813417
       103           10.300000         0.084102216        71.679750566         0.403856398         0.487958614         0.047509571
       104           10.400000         0.073796767        62.896485969         0.414169902         0.487966668         0.032799565
       105           10.500000         0.064662073        55.111047946         0.423311807         0.487973880         0.018763940
       106           10.600000         0.056813354        48.421637844         0.431166802         0.487980156         0.021388708
       107           10.700000         0.050350876        42.913711453         0.437634539         0.487985415         0.019998035
       108           10.800000         0.045358648        38.658869727         0.442630939         0.487989587         0.020055515
       109           10.900000         0.041903325        35.713920916         0.446089293         0.487992618         0.020099533
       110           11.000000         0.040033318        34.120126259         0.447961149         0.487994467         0.020180510
       111           11.100000         0.039778139        33.902639037         0.448216967         0.487995105         0.023637152
       112           11.200000         0.041147979        35.070144327         0.446846545         0.487994524         0.052605699
       113           11.300000         0.044133524        37.614704241         0.443859201         0.487992725         0.023747006
       114           11.400000         0.048706019        41.511810839         0.439283710         0.487989728         0.020701962
       115           11.500000         0.054817574        46.720647855         0.433167996         0.487985569         0.023422612
       116           11.600000         0.062401705        53.184552135         0.425578589         0.487980294         0.020175824
       117           11.700000         0.071374114        60.831675636         0.416599852         0.487973966         0.023188691
       118           11.800000         0.081633691        69.575843570         0.406332972         0.487966663         0.019849640
       119           11.900000         0.093063722        79.317581705         0.394894749         0.487958471         0.021544088
       120           12.000000         0.105533295        89.945314879         0.382416194         0.487949489         0.020327120
       121           12.100000         0.118898891       101.336722149         0.369040936         0.487939828         0.018916964
       122           12.200000         0.133006123       113.360220813         0.354923481         0.487929604         0.021111072
       123           12.300000         0.147691618       125.876568359         0.340227325         0.487918943         0.019668555
       124           12.400000         0.162785005       138.740560417         0.325122970         0.487907975         0.019681404
       125           12.500000         0.178111001       151.802802979         0.309785832         0.487896833         0.019947973
       126           12.600000         0.193491547       164.911538425         0.294394108         0.487885655         0.018812696
       127           12.700000         0.208747988       177.914500401         0.279126589         0.487874577         0.020588156
       128           12.800000         0.223703258       190.660776130         0.264160476         0.487863734         0.020121195
       129           12.900000         0.238184045       203.002653037         0.249669215         0.487853260         0.021215559
       130           13.000000         0.252022909       214.797423434         0.235820373         0.487843282         0.019538590
       131           13.100000         0.265060328       225.909127193         0.222773595         0.487833923         0.022482350
       132           13.200000         0.277146642       236.210211210         0.210678653         0.487825295         0.019829002
       133           13.300000         0.288143883       245.583085463         0.199673622         0.487817505         0.035289702
       134           13.400000         0.297927446       253.921550081         0.189883201         0.487810647         0.032526516
       135           13.500000         0.306387601       261.132083004         0.181417204         0.487804805         0.032821173
       136           13.600000         0.313430815       267.134967082         0.174369232         0.487800048         0.020700035
       137           13.700000         0.318980883       271.865252550         0.168815546         0.487796429         0.020864580
       138           13.800000         0.322979826       275.273524580         0.164814173         0.487793999         0.018582219
       139           13.900000         0.325388572       277.326482632         0.162404207         0.487792779         0.020454965
       140           14.000000         0.326187410       278.007327043         0.161605376         0.487792786         0.019543971
       141           14.100000         0.325376186       277.315925808         0.162417830         0.487794016         0.045961432
       142           14.200000         0.322974261       275.268781433         0.164822188         0.487796449         0.033158118
       143           14.300000         0.319020231       271.898788695         0.168779823         0.487800055         0.046554855
       144           14.400000         0.313571409       267.254794496         0.174233375         0.487804784         0.026801222
       145           14.500000         0.306703067       261.400952457         0.181107510         0.487810577         0.046044574
       146           14.600000         0.298507455       254.415887974         0.189309905         0.487817360         0.033288455
       147           14.700000         0.289092627       246.391693779         0.198732419         0.487825046         0.032533068
       148           14.800000         0.278581062       237.432757860         0.209252477         0.487833539         0.020976700
       149           14.900000         0.267108100       227.654430075         0.220734626         0.487842727         0.021297518
       150           15.000000         0.254820229       217.181560082         0.233032268         0.487852497         0.018753788
       151           15.100000         0.241873237       206.146926504         0.245989490         0.487862727         0.021844551
       152           15.200000         0.228430254       194.689562858         0.259443033         0.487873287         0.019714664
       153           15.300000         0.214659700       182.953012987         0.273224347         0.487884047         0.022230146
       154           15.400000         0.200733174       171.083528886         0.287161695         0.487894869         0.020053308
       155           15.500000         0.186823302       159.228238338         0.301082319         0.487905621         0.021017797
       156           15.600000         0.173101589       147.533315517         0.314814578         0.487916167         0.019986008
       157           15.700000         0.159736292       136.142163339         0.328190086         0.487926378         0.034173962
       158           15.800000         0.146890325       125.193632406         0.341045801         0.487936127         0.048281094
       159           15.900000         0.134719244       114.820301977         0.353226050         0.487945294         0.036079427
       160           16.000000         0.123369328       105.146845145         0.364584438         0.487953766         0.033480569
       161           16.100000         0.112975786        96.288499196         0.374985654         0.487961440         0.047779677
       162           16.200000         0.103661099        88.349654288         0.384307125         0.487968223         0.019601869
       163           16.300000         0.095533533        81.422585191         0.392440500         0.487974034         0.020043058
       164           16.400000         0.088685837        75.586339933         0.399292964         0.487978801         0.021837891
       165           16.500000         0.083194130        70.905795215         0.404788341         0.487982471         0.018836511
       166           16.600000         0.079117011        67.430893985         0.408867989         0.487985000         0.020152543
       167           16.700000         0.076494885        65.196074034         0.411491476         0.487986361         0.020065286
       168           16.800000         0.075349527        64.219893258         0.412637015         0.487986542         0.034431992
       169           16.900000         0.075683875        64.504855667         0.412301669         0.487985544         0.044472883
       170           17.000000         0.077482064        66.037439839         0.410501321         0.487983385         0.049412611
       171           17.100000         0.080709700        68.788332187         0.407270397         0.487980097         0.034597445
       172           17.200000         0.085314369        72.712860468         0.402661356         0.487975725         0.046819939
       173           17.300000         0.091226371        77.751620047         0.396743959         0.487970330         0.048217262
       174           17.400000         0.098359674        83.831285659         0.389604310         0.487963984         0.047025206
       175           17.500000         0.106613068        90.865597902         0.381343702         0.487956770         0.036600046
       176           17.600000         0.115871512        98.756506947         0.372077274         0.487948785         0.055271321
       177           17.700000         0.126007647       107.395466472         0.361932487         0.487940134         0.047466043
       178           17.800000         0.136883478       116.664863773         0.351047451         0.487930928         0.019435784
       179           17.900000         0.148352176       126.439557375         0.339569114         0.487921289         0.024052728
       180           18.000000         0.160259992       136.588508738         0.327651350         0.487911342         0.021598501
       181           18.100000         0.172448254       146.976482034         0.315452962         0.487901215         0.022588598
       182           18.200000         0.184755418       157.465795364         0.303135620         0.487891038         0.061546914
       183           18.300000         0.197019158       167.918097846         0.290861784         0.487880942         0.035677812
       184           18.400000         0.209078451       178.196151678         0.278792608         0.487871059         0.034626081
       185           18.500000         0.220775660       188.165603922         0.267085855         0.487861515         0.047907155
       186           18.600000         0.231958560       197.696714557         0.255893871         0.487852431         0.020579404
       187           18.700000         0.242482290       206.666018053         0.245361636         0.487843926         0.023253692
       188           18.800000         0.252211202       214.957903789         0.235624904         0.487836106         0.019775455
       189           18.900000         0.261020597       222.466092073         0.226808474         0.487829071         0.023076310
       190           19.000000         0.268798317       229.094990017         0.219024594         0.487822911         0.022217430
       191           19.100000         0.275446169       234.760909405         0.212371534         0.487817703         0.034464955
       192           19.200000         0.280881170       239.393124605         0.206932342         0.487813513         0.048049966
       193           19.300000         0.285036594       242.934764494         0.202773800         0.487810395         0.021392356
       194           19.400000         0.287862811       245.343529383         0.199945575         0.487808386         0.022268466
       195           19.500000         0.289327902       246.592217247         0.198479608         0.487807511         0.021497449
       196           19.600000         0.289418052       246.669051110         0.198389727         0.487807779         0.023291775
       197           19.700000         0.288137697       245.577813587         0.199671489         0.487809186         0.020465520
       198           19.800000         0.285509456       243.337781161         0.202302257         0.487811712         0.028667323
       199           19.900000         0.281573810       239.983457052         0.206241514         0.487815324         0.021944950
       200           20.000000         0.276388563       235.564106023         0.211431409         0.487819972         0.022135130
