#     Step Nr.          Time[fs]        Kin.[a.u.]          Temp[K]            Pot.[a.u.]        Cons Qty[a.u.]        UsedTime[s]
         0            0.000000         2.412123729       564.840579357         2.446981655         4.859105384         0.000000000
         1            0.100000         2.440674945       571.526341349         2.418407460         4.859082405         0.481178575
         2            0.200000         2.467872626       577.895149719         2.391190328         4.859062954         0.063868105
         3            0.300000         2.493364046       583.864407754         2.365679810         4.859043857         0.075220499
         4            0.400000         2.516847937       589.363567671         2.342178573         4.859026510         0.083483038
         5            0.500000         2.538049427       594.328264099         2.320961778         4.859011205         0.072680723
         6            0.600000         2.556726297       598.701776973         2.302271837         4.858998134         0.071760630
         7            0.700000         2.572672303       602.435810542         2.286315181         4.858987484         0.063807452
         8            0.800000         2.585719809       605.491110238         2.273259560         4.858979368         0.072193778
         9            0.900000         2.595741896       607.837955662         2.263232003         4.858973898         0.062416250
        10            1.000000         2.602653908       609.456523149         2.256317219         4.858971127         0.084077724
        11            1.100000         2.606414451       610.337119410         2.252556641         4.858971092         0.079640149
        12            1.200000         2.607025801       610.480277600         2.251947958         4.858973758         0.070435684
        13            1.300000         2.604533698       609.896708558         2.254445402         4.858979100         0.073518335
        14            1.400000         2.599026621       608.607131071         2.259960406         4.858987028         0.065802908
        15            1.500000         2.590634525       606.641976157         2.268362915         4.858997439         0.082520783
        16            1.600000         2.579527013       604.040959784         2.279483158         4.859010171         0.074445625
        17            1.700000         2.565910915       600.852514352         2.293114134         4.859025049         0.072820184
        18            1.800000         2.550027409       597.133116333         2.309014459         4.859041869         0.062332493
        19            1.900000         2.532148756       592.946519750         2.326911648         4.859060404         0.074338350
        20            2.000000         2.512574599       588.362891544         2.346505790         4.859080389         0.085749373
        21            2.100000         2.491627856       583.457848609         2.367473696         4.859101552         0.048278112
        22            2.200000         2.469650301       578.311423301         2.389473303         4.859123604         0.074118045
        23            2.300000         2.446997954       573.006983519         2.412148307         4.859146260         0.079758618
        24            2.400000         2.424036278       567.630109192         2.435132911         4.859169189         0.083515339
        25            2.500000         2.401135231       562.267432056         2.458056844         4.859192075         0.088493853
        26            2.600000         2.378664186       557.005447431         2.480550421         4.859214607         0.063372735
        27            2.700000         2.356986942       551.929344934         2.502249549         4.859236491         0.072146858
        28            2.800000         2.336456875       547.121873939         2.522800548         4.859257423         0.077113195
        29            2.900000         2.317412132       542.662217285         2.541864985         4.859277117         0.072167101
        30            3.000000         2.300171029       538.624914169         2.559124281         4.859295310         0.074631876
        31            3.100000         2.285027729       535.078848038         2.574283999         4.859311728         0.062663679
        32            3.200000         2.272248165       532.086291687         2.587077995         4.859326160         0.074836414
        33            3.300000         2.262066404       529.702055864         2.597272000         4.859338404         0.086100550
        34            3.400000         2.254681432       527.972736576         2.604666848         4.859348280         0.075160568
        35            3.500000         2.250254374       526.936064324         2.609101273         4.859355647         0.063236318
        36            3.600000         2.248906228       526.620372572         2.610454173         4.859360401         0.085290620
        37            3.700000         2.250716129       527.044192102         2.608646327         4.859362455         0.065309293
        38            3.800000         2.255720175       528.215976271         2.603641625         4.859361800         0.086146765
        39            3.900000         2.263910784       530.133949381         2.595447628         4.859358413         0.065194527
        40            4.000000         2.275236653       532.786097779         2.584115683         4.859352335         0.070033828
        41            4.100000         2.289603275       536.150291511         2.569740356         4.859343632         0.074137915
        42            4.200000         2.306874002       540.194531473         2.552458402         4.859332403         0.072056616
        43            4.300000         2.326871662       544.877330120         2.532447124         4.859318786         0.070896790
        44            4.400000         2.349380761       550.148225939         2.509922179         4.859302940         0.061825630
        45            4.500000         2.374150119       555.948400340         2.485134939         4.859285058         0.075930807
        46            4.600000         2.400895922       562.211393754         2.458369452         4.859265374         0.085048710
        47            4.700000         2.429305299       568.863941757         2.429938824         4.859244123         0.070449664
        48            4.800000         2.459040234       575.826892228         2.400181342         4.859221576         0.059456913
        49            4.900000         2.489741746       583.016183330         2.369456267         4.859198013         0.071762407
        50            5.000000         2.521034405       590.343901872         2.338139315         4.859173720         0.066884217
        51            5.100000         2.552531025       597.719381408         2.306617978         4.859149003         0.077989764
        52            5.200000         2.583837512       605.050337762         2.275286664         4.859124176         0.062365840
        53            5.300000         2.614557876       612.244043627         2.244541679         4.859099556         0.072225527
        54            5.400000         2.644299412       619.208539615         2.214776067         4.859075479         0.086206518
        55            5.500000         2.672678061       625.853892264         2.186374262         4.859052323         0.046971157
        56            5.600000         2.699323988       632.093497927         2.159706484         4.859030472         0.090271024
        57            5.700000         2.723887490       637.845467570         2.135122836         4.859010325         0.071958746
        58            5.800000         2.746045146       643.034066845         2.112947200         4.858992346         0.063137197
        59            5.900000         2.765506183       647.591205857         2.093470819         4.858977002         0.071463966
        60            6.000000         2.782018802       651.457921862         2.076945774         4.858964576         0.087343114
        61            6.100000         2.795372020       654.584809338         2.063582026         4.858954046         0.076286914
        62            6.200000         2.804660106       656.759775749         2.054283902         4.858944008         0.130089342
        63            6.300000         2.811001739       658.244778882         2.047936923         4.858938662         0.062712118
        64            6.400000         2.813662339       658.867804569         2.045273253         4.858935592         0.070962544
        65            6.500000         2.816425734       659.514901267         2.042509207         4.858934940         0.125784877
        66            6.600000         2.811882818       658.451098775         2.047053587         4.858936405         0.084843829
        67            6.700000         2.803607500       656.513289722         2.055333192         4.858940692         0.315248948
        68            6.800000         2.791664623       653.716658133         2.067283139         4.858947762         0.086459177
        69            6.900000         2.776163319       650.086758998         2.082794228         4.858957546         0.072655983
        70            7.000000         2.757255833       645.659243391         2.101714083         4.858969916         0.065783312
        71            7.100000         2.735135790       640.479451937         2.123848946         4.858984736         0.073513382
        72            7.200000         2.710035883       634.601873666         2.148965965         4.859001847         0.094373721
        73            7.300000         2.682225054       628.089486161         2.176795964         4.859021018         0.087512778
        74            7.400000         2.652005255       621.012996352         2.207036769         4.859042023         0.065736762
        75            7.500000         2.619707761       613.449978316         2.239356851         4.859064611         0.086390260
        76            7.600000         2.585689149       605.483930664         2.273399369         4.859088518         0.074350533
        77            7.700000         2.550326951       597.203259164         2.308786492         4.859113443         0.061256075
        78            7.800000         2.514015039       588.700195602         2.345124048         4.859139087         0.072225344
        79            7.900000         2.477158817       580.069672344         2.382006322         4.859165139         0.088384386
        80            8.000000         2.440170238       571.408155417         2.419021035         4.859191272         0.073415480
        81            8.100000         2.403462790       562.812470383         2.455754402         4.859217192         0.064346391
        82            8.200000         2.367446451       554.378620307         2.491796125         4.859242576         0.075230565
        83            8.300000         2.332522668       546.200611133         2.526744435         4.859267103         0.088022384
        84            8.400000         2.299079463       538.369305160         2.560211018         4.859290482         0.075976951
        85            8.500000         2.267486680       530.971307362         2.591825761         4.859312441         0.063305617
        86            8.600000         2.238091524       524.087922063         2.621241172         4.859332696         0.086040655
        87            8.700000         2.211214335       517.794162519         2.648136688         4.859351023         0.058467771
        88            8.800000         2.187144720       512.157845005         2.672222471         4.859367191         0.089953580
        89            8.900000         2.166138068       507.238773366         2.693242953         4.859381021         0.046052868
        90            9.000000         2.148412467       503.088016662         2.710979873         4.859392340         0.074703475
        91            9.100000         2.134146148       499.747310578         2.725254870         4.859401017         0.081454137
        92            9.200000         2.123475356       497.248559862         2.735931602         4.859406958         0.063678688
        93            9.300000         2.116492783       495.613469381         2.742917309         4.859410092         0.073714751
        94            9.400000         2.113246571       494.853312386         2.746163826         4.859410396         0.069511936
        95            9.500000         2.113739803       494.968811210         2.745668068         4.859407871         0.089651179
        96            9.600000         2.117930594       495.950157766         2.741471961         4.859402555         0.047669574
        97            9.700000         2.125732735       497.777164205         2.733661794         4.859394529         0.087890836
        98            9.800000         2.137016888       500.419544322         2.722367010         4.859383899         0.072866180
        99            9.900000         2.151612356       503.837325904         2.707758446         4.859370801         0.060219792
       100           10.000000         2.169309326       507.981378165         2.690046081         4.859355406         0.086439508
       101           10.100000         2.189861615       512.794052930         2.669476310         4.859337925         0.074502867
       102           10.200000         2.212989820       518.209923157         2.646328753         4.859318574         0.064366083
       103           10.300000         2.238384911       524.156623852         2.620912677         4.859297588         0.069964320
       104           10.400000         2.265712219       530.555786524         2.593563048         4.859275267         0.073166770
       105           10.500000         2.294615691       537.324035580         2.564636163         4.859251854         0.070285026
       106           10.600000         2.324722404       544.374044209         2.534505283         4.859227687         0.062916182
       107           10.700000         2.355647281       551.615640126         2.503555758         4.859203039         0.069926171
       108           10.800000         2.386997973       558.956947967         2.472180256         4.859178229         0.090025835
       109           10.900000         2.418379815       566.305550321         2.440773753         4.859153568         0.071068240
       110           11.000000         2.449400797       573.569650987         2.409728577         4.859129374         0.064127658
       111           11.100000         2.479676440       580.659217517         2.379429495         4.859105935         0.071624890
       112           11.200000         2.508834543       587.487092686         2.350248980         4.859083523         0.069751896
       113           11.300000         2.536519741       593.970061625         2.322542650         4.859062391         0.064607466
       114           11.400000         2.562397417       600.029768032         2.296645288         4.859042705         0.083025397
       115           11.500000         2.586155422       605.593116664         2.272868564         4.859023986         0.070878358
       116           11.600000         2.607493579       610.589815843         2.251509387         4.859002965         0.062581425
       117           11.700000         2.626311726       614.996411171         2.232683100         4.858994825         0.122660507
       118           11.800000         2.642183668       618.713101679         2.216798483         4.858982151         0.063120843
       119           11.900000         2.655043553       621.724466459         2.203929789         4.858973342         0.071318297
       120           12.000000         2.664753637       623.998250978         2.194213735         4.858967372         0.086017334
       121           12.100000         2.671222545       625.513058017         2.187741575         4.858964120         0.074931771
       122           12.200000         2.674402544       626.257709830         2.184561018         4.858963562         0.059967505
       123           12.300000         2.674289254       626.231181044         2.184676444         4.858965698         0.071204149
       124           12.400000         2.670921348       625.442527343         2.188049126         4.858970474         0.072446126
       125           12.500000         2.664379794       623.910709113         2.194598028         4.858977821         0.060099422
       126           12.600000         2.654786539       621.664282168         2.204201062         4.858987601         0.080862613
       127           12.700000         2.642302793       618.740996659         2.216696907         4.858999699         0.060070343
       128           12.800000         2.627126753       615.187264027         2.231887182         4.859013935         0.057851134
       129           12.900000         2.609490813       611.057502923         2.249539297         4.859030110         0.081461643
       130           13.000000         2.589658374       606.413393594         2.269389626         4.859048000         0.056533608
       131           13.100000         2.567920313       601.323049910         2.291147047         4.859067361         0.072152626
       132           13.200000         2.544591047       595.860097942         2.314496890         4.859087937         0.074075858
       133           13.300000         2.520004322       590.102690097         2.339105111         4.859109433         0.059430650
       134           13.400000         2.494508810       584.132474000         2.364622784         4.859131594         0.069331884
       135           13.500000         2.468463449       578.033501273         2.390690632         4.859154081         0.071481279
       136           13.600000         2.442232672       571.891110155         2.416943945         4.859176617         0.060033057
       137           13.700000         2.416181624       565.790805810         2.443017279         4.859198903         0.070643459
       138           13.800000         2.390671317       559.817125295         2.468549322         4.859220639         0.070020548
       139           13.900000         2.366053820       554.052511643         2.493187699         4.859241519         0.062626366
       140           14.000000         2.342667667       548.576238551         2.516593613         4.859261280         0.070453145
       141           14.100000         2.320833420       543.463371193         2.538446242         4.859279662         0.070417219
       142           14.200000         2.300849486       538.783786611         2.558446940         4.859296425         0.072151150
       143           14.300000         2.282988171       534.601250162         2.576323169         4.859311340         0.044922054
       144           14.400000         2.267492103       530.972577342         2.591832102         4.859324205         0.083168546
       145           14.500000         2.254571068       527.946892965         2.604763791         4.859334859         0.057988941
       146           14.600000         2.244399227       525.564980080         2.614943923         4.859343150         0.075628824
       147           14.700000         2.237112886       523.858757161         2.622236085         4.859348972         0.070142476
       148           14.800000         2.232808752       522.850869513         2.626543497         4.859352249         0.311115724
       149           14.900000         2.231542642       522.554387781         2.627810290         4.859352932         0.075509630
       150           15.000000         2.233328767       522.972639954         2.626022254         4.859351020         0.061202525
       151           15.100000         2.238139605       524.099181019         2.621206931         4.859346535         0.074615588
       152           15.200000         2.245906288       525.917884653         2.613433247         4.859339535         0.076467129
       153           15.300000         2.256519531       528.403159443         2.602810588         4.859330119         0.075479077
       154           15.400000         2.269831067       531.520286147         2.589487336         4.859318403         0.077056595
       155           15.500000         2.285655663       535.225889656         2.573648882         4.859304545         0.075965952
       156           15.600000         2.303773600       539.468518537         2.555515127         4.859288726         0.073152333
       157           15.700000         2.323933565       544.189323812         2.535337586         4.859271151         0.062957517
       158           15.800000         2.345855977       549.322836558         2.513396080         4.859252057         0.076665072
       159           15.900000         2.369236643       554.797824807         2.489995061         4.859231704         0.077457997
       160           16.000000         2.393750847       560.538250553         2.465459502         4.859210349         0.077611051
       161           16.100000         2.419057635       566.464273539         2.440130645         4.859188279         0.079310274
       162           16.200000         2.444804314       572.493304764         2.414361475         4.859165789         0.077325728
       163           16.300000         2.470631140       578.541103745         2.388512042         4.859143182         0.077401654
       164           16.400000         2.496175993       584.522873758         2.362944751         4.859120744         0.075925382
       165           16.500000         2.521079234       590.354399337         2.338019535         4.859098769         0.078621330
       166           16.600000         2.544988474       595.953162239         2.314089080         4.859077554         0.087197184
       167           16.700000         2.567563157       601.239415633         2.291494237         4.859057394         0.058235747
       168           16.800000         2.588479075       606.137240303         2.270559458         4.859038533         0.076933897
       169           16.900000         2.607432671       610.575553371         2.251588564         4.859021236         0.064578538
       170           17.000000         2.624145098       614.489057813         2.234860641         4.859005739         0.059059900
       171           17.100000         2.638365934       617.819112931         2.220626311         4.858992245         0.056630627
       172           17.200000         2.649876492       620.514509644         2.209104451         4.858980943         0.072872501
       173           17.300000         2.658492770       622.532160586         2.200479207         4.858971978         0.072042663
       174           17.400000         2.664067949       623.837685327         2.194897525         4.858965475         0.056578489
       175           17.500000         2.666494347       624.405868482         2.192467187         4.858961534         0.074980213
       176           17.600000         2.665704985       624.221025730         2.193255227         4.858960213         0.059600999
       177           17.700000         2.661674567       623.277233377         2.197286970         4.858961537         0.072662745
       178           17.800000         2.654419871       621.578420536         2.204545622         4.858965493         0.075127878
       179           17.900000         2.643999727       619.138363258         2.214972319         4.858972046         0.058970672
       180           18.000000         2.630514412       615.980543080         2.228466712         4.858981124         0.073077416
       181           18.100000         2.614104461       612.137868507         2.244888153         4.858992613         0.090540545
       182           18.200000         2.594948979       607.652280388         2.264057421         4.859006400         0.076721940
       183           18.300000         2.573263528       602.574256181         2.285758775         4.859022303         0.057663809
       184           18.400000         2.549297443       596.962181928         2.309742693         4.859040135         0.075078046
       185           18.500000         2.523330763       590.881633853         2.335728907         4.859059670         0.058218095
       186           18.600000         2.495670795       584.404573021         2.363409880         4.859080676         0.073338933
       187           18.700000         2.466648287       577.608449739         2.392454593         4.859102880         0.075289252
       188           18.800000         2.436613345       570.575247431         2.422512669         4.859126014         0.073729601
       189           18.900000         2.405931003       563.390445143         2.453218789         4.859149792         0.059965510
       190           19.000000         2.374976699       556.141958446         2.484197236         4.859173935         0.074402460
       191           19.100000         2.344131633       548.919051599         2.515066497         4.859198130         0.072180727
       192           19.200000         2.313777941       541.811208499         2.545444138         4.859222079         0.060306045
       193           19.300000         2.284293899       534.907008987         2.574951590         4.859245489         0.074527340
       194           19.400000         2.256049238       528.293032066         2.603218825         4.859268063         0.073200552
       195           19.500000         2.229400501       522.052768550         2.629889026         4.859289528         0.075301032
       196           19.600000         2.204686567       516.265572400         2.654623037         4.859309604         0.073528869
       197           19.700000         2.182224392       511.005664774         2.677103662         4.859328054         0.059145816
       198           19.800000         2.162305014       506.341197266         2.697039623         4.859344637         0.067423475
       199           19.900000         2.145189877       502.333391201         2.714169278         4.859359155         0.075472570
       200           20.000000         2.131107559       499.035772445         2.728263865         4.859371425         0.061512050
