2400
 i =        0, time =        0.000, E =         2.8373120957
CP   9.1787128665  6.2003205298  12.5555980138
CP   9.9857731797  6.9880576234  11.7707115977
CP   10.3895317971  6.5168707747  10.4699165986
CP   11.2168912863  7.2992743268  9.6325648225
CP   9.9271945628  5.2447580823  10.0286688972
CP   9.0716569022  4.4679435403  10.8849502997
CP   8.7051830082  4.9407567277  12.1034574676
H   8.8565944068  6.7011744779  13.5146015986
H   10.4096359297  8.0247667619  12.0964634759
H   11.5312580295  8.3336364362  9.9664846718
H   8.8237147617  3.4400241910  10.5375923152
H   8.1430406404  4.1050491408  12.6590259409
CP   11.5871049786  6.8268806540  8.3729456161
CP   10.3060002327  4.7820661888  8.7595039285
CP   11.1442761659  5.5551839008  7.9255693838
CP   12.4425559900  7.5978845673  7.5151428966
H   9.9718050538  3.7776480206  8.4204872183
CP   11.5296575007  5.0850537947  6.6140208968
CP   12.7989332810  7.1342160030  6.2857839156
H   12.7138049500  8.6293739174  7.9097279644
CP   12.3330484700  5.8740137270  5.8305382397
H   11.1270384091  4.0863162311  6.2750249919
H   13.3259995122  7.9737233714  5.7153946745
H   12.6218482538  5.4050313025  4.8510844137
CP   8.0650135992  9.2257062157  5.8388193969
CP   7.2482436897  10.0028883129  6.6177521757
CP   6.8554779964  9.5434313663  7.9239482742
CP   6.0175780523  10.3206952958  8.7622498486
CP   7.3034975004  8.2670918007  8.3665309866
CP   8.1612853758  7.4965825884  7.5145406196
CP   8.5178127879  7.9685919281  6.2879084823
H   8.3928347844  9.7232367105  4.8816388940
H   6.8269217689  10.9943971516  6.2722973463
H   5.7275514926  11.3371353189  8.4027130957
H   8.4018614376  6.4461105496  7.8777970898
H   9.0626166097  7.1316468373  5.7048687916
CP   5.6406195474  9.8559195902  10.0246289565
CP   6.9270054382  7.7909101558  9.6309455337
CP   6.0915852052  8.5707686191  10.4673138921
CP   4.7917379499  10.6244021225  10.8726333541
H   7.2484614506  6.7716172219  9.9681306211
CP   5.7041973964  8.1016272797  11.7730627781
CP   4.4327390799  10.1453937588  12.1069806252
H   4.5025869464  11.6226416755  10.5149550100
CP   4.8934465476  8.8907989521  12.5532023045
H   6.1419848113  7.1089627733  12.0725070685
H   3.8695095015  11.0215210258  12.6786337024
H   4.5686369915  8.4061707257  13.5234982225
CP   2.8123217820  6.1998321925  21.7542669435
CP   3.6236414155  6.9909534902  20.9700436397
CP   4.0184976386  6.5189117416  19.6667646453
CP   4.8436610856  7.3129829094  18.8308744690
CP   3.5575925619  5.2486730699  19.2178668201
CP   2.6972257898  4.4698181248  20.0673153167
CP   2.3415632375  4.9416962707  21.3008501894
H   2.5294189536  6.6815489009  22.7153837235
H   4.0759566009  7.9829253961  21.3241467675
H   5.1748334590  8.3037043458  19.1953644544
H   2.4497338665  3.4377346599  19.7049366278
H   1.7675489851  4.1102860701  21.8915516206
CP   5.2260149944  6.8226423796  17.5639258148
CP   3.9389088080  4.7741374043  17.9522026592
CP   4.7728128332  5.5482827672  17.1226970385
CP   6.0715679035  7.6093452851  16.6977988485
H   3.6120339734  3.7565089554  17.6308705919
CP   5.1564306349  5.0885326134  15.8158246214
CP   6.4412799689  7.1332711944  15.4859348692
H   6.3454151963  8.6350047832  17.0726566223
CP   5.9765179603  5.8752796207  15.0159902081
H   4.7475560716  4.1014106292  15.5165264554
H   7.0041199592  7.9621099986  14.8987739845
H   6.2828948288  5.3616763503  14.0673685201
CP   1.6875101185  9.2280791000  15.0234295122
CP   0.8748741230  10.0072446255  15.8074582987
CP   0.4830667420  9.5338987128  17.1170223650
CP   -0.3459335392  10.3145924000  17.9629325775
CP   0.9396896252  8.2674970948  17.5561634449
CP   1.7969261454  7.4886662936  16.6987204747
CP   2.1551570943  7.9751693179  15.4754553140
H   1.9827575960  9.7183225453  14.0886801375
H   0.4217550132  11.0165174508  15.4623053248
H   -0.6735298398  11.2954352248  17.6078120107
H   2.0453074787  6.4838277117  17.0837165756
H   2.7069936427  7.1108020757  14.8984209347
CP   -0.7257006483  9.8492719673  19.2214117340
CP   0.5594406537  7.7998955956  18.8251746618
CP   -0.2640040963  8.5673506189  19.6640599799
CP   -1.5681207759  10.6292515337  20.0704285419
H   0.8854858089  6.7992871451  19.1675360643
CP   -0.6634268053  8.1036850697  20.9651013049
CP   -1.9331487844  10.1495309173  21.3021756748
H   -1.8428436491  11.6505081131  19.6780934223
CP   -1.4734903919  8.8960115532  21.7480425643
H   -0.2527878183  7.1082207694  21.3236517987
H   -2.4991045557  11.0007075612  21.8694422717
H   -1.7592039226  8.4184681386  22.6994874817
CP   9.1778900951  12.2436257732  12.5535011134
CP   9.9872776810  13.0321071222  11.7753339238
CP   10.3797140278  12.5572808538  10.4671993704
CP   11.2024896851  13.3366157352  9.6289749437
CP   9.9293242126  11.2822674908  10.0200286808
CP   9.0727520191  10.5038093993  10.8788139827
CP   8.7142960671  10.9824565441  12.1064842185
H   8.9215088504  12.7389057725  13.5301548124
H   10.3842091222  14.0373696488  12.1311862128
H   11.5543625385  14.3094047853  10.0002425917
H   8.7847217936  9.5003446952  10.5135783391
H   8.1398788173  10.1374136749  12.6918083471
CP   11.5962451462  12.8637010407  8.3738363880
CP   10.3117374169  10.8047862765  8.7567162058
CP   11.1415799963  11.5968422405  7.9276840860
CP   12.4296241470  13.6395676360  7.5094596015
H   9.9837480104  9.8050351617  8.4299667847
CP   11.5159123462  11.1281307570  6.6043786483
CP   12.8059876660  13.1668599040  6.2763478373
H   12.7035367970  14.6518859012  7.8687647974
CP   12.3419244883  11.9158993495  5.8336611437
H   11.1016113954  10.1352781876  6.2557051204
H   13.3958643870  14.0007378587  5.7175561792
H   12.6461859391  11.4208520261  4.8716592526
CP   8.0569344099  15.2544085524  5.8345522767
CP   7.2464112191  16.0434808697  6.6139460216
CP   6.8559145833  15.5896167536  7.9205838377
CP   6.0215821583  16.3610294592  8.7561939768
CP   7.3150870728  14.3028320782  8.3740588562
CP   8.1572118929  13.5212231314  7.5041833839
CP   8.5233554519  14.0017528995  6.2842584596
H   8.3765027503  15.7175969337  4.8435252332
H   6.8130655965  17.0285910689  6.2954947564
H   5.6776706209  17.3869368443  8.4162015175
H   8.4208540565  12.4967376703  7.8740435292
H   9.1240382418  13.1735107318  5.6943226270
CP   5.6414217161  15.8899329073  10.0264778622
CP   6.9256652629  13.8311818873  9.6301580307
CP   6.0939706492  14.6066436621  10.4708473359
CP   4.7895498167  16.6649476131  10.8804486847
H   7.2661285386  12.8538681546  9.9796262700
CP   5.7060578368  14.1430256849  11.7766742941
CP   4.4393675783  16.1901047079  12.1110762346
H   4.5401848804  17.6917150908  10.5512226141
CP   4.8938038431  14.9329541124  12.5554785055
H   6.1598500291  13.1519472951  12.1074050973
H   3.8733648485  17.0319584236  12.6598132865
H   4.5686172039  14.4397779851  13.5180143814
CP   2.8049879789  12.2406227172  21.7508317378
CP   3.6209469746  13.0299432546  20.9718954856
CP   4.0051673108  12.5581482958  19.6576547394
CP   4.8438645082  13.3387868938  18.8307060170
CP   3.5577375910  11.2830654013  19.2159003303
CP   2.7092796800  10.5168660398  20.0654390778
CP   2.3506012105  10.9875786396  21.3028068483
H   2.5001853017  12.7067291454  22.7198202938
H   4.0260549399  14.0053493055  21.2928533830
H   5.1618935385  14.3237841334  19.2005487023
H   2.4359590473  9.4490855083  19.7331840879
H   1.7759084630  10.1601430823  21.8599633364
CP   5.2202502353  12.8594507940  17.5630924646
CP   3.9400002640  10.7989785804  17.9525277740
CP   4.7704525651  11.5852876780  17.1196233043
CP   6.0875329672  13.6431476063  16.7085953325
H   3.5997078712  9.8237025102  17.6274445043
CP   5.1600292081  11.1265166519  15.8057806963
CP   6.4300610071  13.1724310322  15.4807467525
H   6.3145045440  14.6662051866  17.0515665264
CP   5.9656544891  11.9066038821  15.0204010517
H   4.7545780700  10.1236244257  15.4782737016
H   7.0074602533  14.0138114862  14.9103388407
H   6.2644933714  11.4322716762  14.0368934359
CP   1.6851192026  15.2557366009  15.0272509665
CP   0.8809711515  16.0456384385  15.8043090367
CP   0.4796620244  15.5811335443  17.1247268212
CP   -0.3437487842  16.3731667936  17.9534456067
CP   0.9415666876  14.3028487012  17.5680372523
CP   1.8015959867  13.5324726913  16.6994145317
CP   2.1492074779  13.9955105157  15.4774974069
H   2.0251276774  15.7468719002  14.0782150631
H   0.4560082775  17.0653288315  15.4799616588
H   -0.6837439738  17.3766942791  17.5910378269
H   2.0473697496  12.5158145203  17.0740232133
H   2.7120405111  13.1679939123  14.8960665011
CP   -0.7181856029  15.8849522494  19.2152278293
CP   0.5615940533  13.8308304550  18.8243540389
CP   -0.2760197189  14.6056315845  19.6590062381
CP   -1.5742109048  16.6639496522  20.0731544536
H   0.8747802296  12.8480029945  19.1780079306
CP   -0.6414448524  14.1371225963  20.9692695227
CP   -1.9287196474  16.1833979275  21.3082152098
H   -1.8169184191  17.6983174232  19.7168321225
CP   -1.4730914336  14.9320745562  21.7580095760
H   -0.2133296997  13.1657436642  21.2810248341
H   -2.5107922716  17.0532559588  21.8737386032
H   -1.7894552150  14.4520969673  22.7335146709
CP   9.1773742308  18.2821325004  12.5463729545
CP   9.9769784127  19.0686681271  11.7834683675
CP   10.3780803478  18.6000966825  10.4600415038
CP   11.2165251395  19.3812257943  9.6275120408
CP   9.9240640314  17.3134252146  10.0292783503
CP   9.0748413580  16.5470074495  10.8919898189
CP   8.7108340320  17.0246330371  12.1031899127
H   8.8780067409  18.7350810986  13.5097383991
H   10.4270557727  20.0601250799  12.1349789130
H   11.5177670248  20.3824860732  9.9302189505
H   8.7707949005  15.5277839702  10.5139657476
H   8.1172850337  16.1513008835  12.6954310636
CP   11.5907820706  18.8948539823  8.3777169508
CP   10.3059873933  16.8458292576  8.7606576412
CP   11.1344349122  17.6346718093  7.9280825491
CP   12.4362034008  19.6799836547  7.5046801315
H   10.0069012515  15.8543746023  8.3954319562
CP   11.5195018484  17.1667571702  6.6190792064
CP   12.7999766237  19.2028819666  6.2758502237
H   12.6879467966  20.7100292167  7.8682666668
CP   12.3364668638  17.9456246989  5.8349415087
H   11.1036658698  16.1763823903  6.2740114791
H   13.3746319573  20.0379707690  5.7279327402
H   12.6252332619  17.4895306237  4.8658511833
CP   8.0601516241  21.3005821080  5.8316316081
CP   7.2391723107  22.0927488699  6.6157400350
CP   6.8526038828  21.6204888653  7.9210198904
CP   6.0314436293  22.3961030090  8.7523996261
CP   7.3055308323  20.3436085546  8.3651130913
CP   8.1698972858  19.5669482922  7.5133847034
CP   8.5175711496  20.0438131992  6.2898912090
H   8.3615965086  21.7803032896  4.8733668474
H   6.8348448101  23.0741979123  6.2975129835
H   5.6960895635  23.4089291402  8.3991574309
H   8.4149826058  18.5455712417  7.8824281374
H   9.0551272603  19.1942134468  5.7156116452
CP   5.6522913029  21.9203871189  10.0192517935
CP   6.9242747444  19.8654736540  9.6269412018
CP   6.0976423242  20.6440845820  10.4654251599
CP   4.7883933752  22.7032279820  10.8800666309
H   7.2633060298  18.8748370802  9.9807739080
CP   5.7127374442  20.1777483890  11.7743207989
CP   4.4367955668  22.2241883760  12.1102016189
H   4.5267671818  23.7155931209  10.5398314446
CP   4.8994728366  20.9691219980  12.5538130147
H   6.1625743485  19.1643928464  12.1196280539
H   3.8729326157  23.0862042145  12.6823765323
H   4.5730566319  20.5030609288  13.5274855950
CP   2.8038459586  18.2796010424  21.7501941013
CP   3.6221103532  19.0662356004  20.9721873188
CP   4.0078310613  18.5995282673  19.6541507496
CP   4.8340948060  19.3838380667  18.8259095118
CP   3.5569071588  17.3280607705  19.2166507979
CP   2.7054713808  16.5465400481  20.0732007152
CP   2.3398223689  17.0246315131  21.3016382419
H   2.4869706744  18.7285455121  22.7031418398
H   4.0532250434  20.0389401212  21.3054263612
H   5.1570806560  20.3753894651  19.1842403558
H   2.4471911768  15.5322561113  19.7393668795
H   1.8015246955  16.1816120896  21.8603208877
CP   5.2222544074  18.9008639069  17.5710818788
CP   3.9405283649  16.8560962271  17.9555900201
CP   4.7675986490  17.6340961436  17.1203406963
CP   6.0743589724  19.6833171089  16.7141928759
H   3.6113502542  15.8562224360  17.6071504701
CP   5.1578575714  17.1572579666  15.8067111525
CP   6.4423307930  19.2025760485  15.4682385098
H   6.3645337878  20.7165350748  17.0751951501
CP   5.9696386842  17.9471358152  15.0282465791
H   4.7408582047  16.1728094666  15.4992918992
H   7.0164156873  20.0587765132  14.9017540272
H   6.2571654287  17.4789130495  14.0806189407
CP   1.6958371238  21.2944199636  15.0215106485
CP   0.8754980109  22.0951184267  15.8077445101
CP   0.4819657474  21.6251011503  17.1149486733
CP   -0.3513431173  22.3927176002  17.9530792873
CP   0.9420035226  20.3400579706  17.5610513995
CP   1.7962039269  19.5637224353  16.6988622369
CP   2.1517816588  20.0416745907  15.4784668385
H   2.0106929573  21.7543476704  14.0585159107
H   0.4456360105  23.1211531408  15.4936750911
H   -0.6752863381  23.3922872274  17.6328995312
H   2.0510286550  18.5343859711  17.0502368501
H   2.7010445156  19.2032030584  14.9044630523
CP   -0.7237336819  21.9203236159  19.2140587108
CP   0.5669547808  19.8657132629  18.8321956741
CP   -0.2667160732  20.6446659042  19.6575502750
CP   -1.5715480174  22.6972672403  20.0804168077
H   0.8724170502  18.8572621729  19.1669891252
CP   -0.6653579149  20.1793448051  20.9690147897
CP   -1.9310330265  22.2209066634  21.2989839097
H   -1.8355258121  23.7465902889  19.7069388288
CP   -1.4739780353  20.9645059804  21.7510275698
H   -0.2563510809  19.1754386517  21.2718630320
H   -2.5201450753  23.0530549167  21.8573082295
H   -1.7720370003  20.4985235888  22.7262490610
CP   9.1678674291  24.3157644812  12.5556175634
CP   10.0008390525  25.1022053387  11.7727860984
CP   10.3771097550  24.6404185878  10.4658017802
CP   11.2204624750  25.4190936861  9.6384107815
CP   9.9163413986  23.3586901801  10.0190270636
CP   9.0643936706  22.5945249748  10.8840395101
CP   8.7062941721  23.0634732822  12.0985430740
H   8.8677868387  24.7972699707  13.5358622060
H   10.4042501433  26.1235846765  12.1118106327
H   11.5219638950  26.4055803659  9.9750501455
H   8.8129134591  21.5555993664  10.5275366161
H   8.1471750990  22.2174839818  12.6791127217
CP   11.5949065485  24.9444386995  8.3608586896
CP   10.3069388329  22.8938265040  8.7582875130
CP   11.1383087703  23.6655574793  7.9287962600
CP   12.4378999738  25.7119158986  7.5113613537
H   9.9716265139  21.8756322229  8.4071200598
CP   11.5279252771  23.2006573436  6.6132830692
CP   12.7946120217  25.2360529465  6.2822099213
H   12.7049920923  26.7291601079  7.8366059913
CP   12.3390904503  23.9881031592  5.8330775055
H   11.0893526925  22.1922880639  6.2727702379
H   13.3683627573  26.1101685961  5.7309202994
H   12.6313298089  23.5204926165  4.8755037199
CP   8.0576999696  27.3350140927  5.8340869927
CP   7.2463047144  28.1260376985  6.6127885996
CP   6.8567976262  27.6555547387  7.9262609230
CP   6.0287442610  28.4333638720  8.7603415086
CP   7.3167381480  26.3906687543  8.3677708211
CP   8.1563219183  25.6073332391  7.5080885859
CP   8.5182065729  26.0762201337  6.2730672093
H   8.3498897692  27.8201237983  4.8397803986
H   6.8197132548  29.1476030255  6.2534341164
H   5.6578520891  29.4520484662  8.4086824936
H   8.4303688862  24.5722592049  7.8709407882
H   9.0620573617  25.2294719674  5.7377942282
CP   5.6406793063  27.9557817375  10.0184605893
CP   6.9365570490  25.9075942267  9.6340656883
CP   6.0939155665  26.6902671989  10.4663565873
CP   4.7866292494  28.7455885977  10.8879064801
H   7.2546643242  24.8864095494  10.0073580272
CP   5.6986472705  26.2173893602  11.7761035783
CP   4.4289715435  28.2605858630  12.1022244339
H   4.5455205401  29.7568889927  10.5069126756
CP   4.9008519231  27.0102311808  12.5665172314
H   6.1433375242  25.2109895490  12.1053697972
H   3.8534248493  29.0900700421  12.6890368564
H   4.5987658927  26.5209377544  13.5456472614
CP   2.8033354089  24.3127330938  21.7411683146
CP   3.6215009060  25.1030377246  20.9771175011
CP   4.0125790640  24.6341556383  19.6606807777
CP   4.8365431256  25.4194645887  18.8299069002
CP   3.5600437514  23.3611965486  19.2164250707
CP   2.6995526807  22.5851685509  20.0754527639
CP   2.3399367315  23.0528519138  21.2893045486
H   2.5255447340  24.8143074510  22.7281287278
H   4.0437840671  26.0772875652  21.2763219452
H   5.1390394649  26.3982602950  19.1815160218
H   2.4453526019  21.5819392996  19.7112550187
H   1.7967708494  22.2071805665  21.8786305857
CP   5.2181391842  24.9298389128  17.5587707393
CP   3.9387912667  22.8877743566  17.9584724208
CP   4.7726392624  23.6697419127  17.1138805226
CP   6.0871743890  25.7115141517  16.7081251009
H   3.5970450660  21.8918595529  17.5898531519
CP   5.1600919448  23.1964655112  15.7989502153
CP   6.4318157529  25.2445193311  15.4799181486
H   6.3390271052  26.7208257803  17.0900673466
CP   5.9666919087  23.9915262614  15.0313737583
H   4.7277502797  22.1835385482  15.5005987549
H   6.9865632299  26.0742399026  14.9262535707
H   6.2531349827  23.5194430598  14.0833008247
CP   1.6970376120  27.3274910712  15.0286842846
CP   0.8724287193  28.1264527405  15.8067497396
CP   0.4842514102  27.6592427205  17.1138597125
CP   -0.3332734831  28.4370726871  17.9646574826
CP   0.9364581857  26.3761683438  17.5626799524
CP   1.7967458480  25.6157458388  16.7000801265
CP   2.1517989250  26.0883757532  15.4803659501
H   1.9963423878  27.8336573205  14.0890643835
H   0.4326157933  29.1113950468  15.4719714948
H   -0.6814238835  29.4462735793  17.6185119641
H   2.0308948130  24.5747900368  17.0893217607
H   2.7444974563  25.2317537538  14.8939728411
CP   -0.7336433445  27.9633506222  19.2138729182
CP   0.5488771204  25.9062043327  18.8278383363
CP   -0.2681092786  26.6884218246  19.6588980588
CP   -1.5818524603  28.7406356244  20.0762311884
H   0.8887864821  24.8881730407  19.1901536440
CP   -0.6531570975  26.2228680755  20.9735052326
CP   -1.9344636998  28.2578325846  21.3058460662
H   -1.8153099329  29.7608160501  19.7007485313
CP   -1.4689946265  27.0097492160  21.7463420312
H   -0.2336162534  25.2327303219  21.2933959163
H   -2.5267901647  29.1145721820  21.9009715035
H   -1.7890137144  26.5228723786  22.7360281903
CP   9.1750182703  30.3479160254  12.5558423983
CP   9.9898558831  31.1424238550  11.7736398940
CP   10.3832741998  30.6774089709  10.4698397295
CP   11.2055327030  31.4456752694  9.6307770747
CP   9.9257423286  29.4009311738  10.0251416021
CP   9.0679510758  28.6258435734  10.8779243326
CP   8.7213203548  29.1013297180  12.1103792815
H   8.8535951380  30.8625036851  13.5628829395
H   10.4135687518  32.1473295651  12.1067176975
H   11.5126705014  32.4898150203  9.9582508791
H   8.7747711523  27.5794688603  10.5216729516
H   8.1203201399  28.2592732546  12.6675052963
CP   11.5917481545  30.9861830839  8.3673174175
CP   10.3076676644  28.9268472272  8.7598566388
CP   11.1312902435  29.7072683693  7.9233608132
CP   12.4371018494  31.7596831294  7.5126848583
H   9.9673804745  27.8982872764  8.4150797916
CP   11.5289269488  29.2377405590  6.6254640301
CP   12.8023085278  31.2778393426  6.2871199217
H   12.7187346542  32.7804085423  7.8502470446
CP   12.3390228900  30.0284071015  5.8325138122
H   11.1095160686  28.2597291473  6.2755070532
H   13.3917619209  32.1414784076  5.6758805352
H   12.6369906659  29.5515767412  4.8590890641
CP   8.0529891201  33.3655674638  5.8305668990
CP   7.2358425643  34.1644117775  6.6144650624
CP   6.8578508832  33.6904031603  7.9204968569
CP   6.0298128640  34.4770445842  8.7623829305
CP   7.3103130154  32.4187692990  8.3773278398
CP   8.1651844479  31.6400063958  7.5120922021
CP   8.5113281528  32.1153547023  6.2846717509
H   8.3470758021  33.8515576854  4.8825574201
H   6.8106027849  35.1336445570  6.2792396060
H   5.6887957826  35.4482143966  8.3976629750
H   8.4157502717  30.6233631782  7.8735358949
H   9.0676745180  31.3000042420  5.7101101024
CP   5.6444461307  34.0017711112  10.0121025153
CP   6.9266859997  31.9404230671  9.6289767127
CP   6.1008219955  32.7256653153  10.4723451440
CP   4.7921723564  34.7842342591  10.8730026844
H   7.2454812881  30.9314969857  9.9514516027
CP   5.7087628257  32.2569869431  11.7805965590
CP   4.4302158846  34.2927290916  12.1088790979
H   4.5242810311  35.7811884895  10.5058136713
CP   4.8959239146  33.0447308799  12.5532105478
H   6.1047875050  31.2570379385  12.1414410904
H   3.8388895279  35.1351199832  12.6625914166
H   4.6002502526  32.5531339678  13.5246395159
CP   2.8147382501  30.3537218873  21.7502316989
CP   3.6236270356  31.1404620740  20.9667718524
CP   4.0181979674  30.6740671299  19.6669892038
CP   4.8418505871  31.4555030420  18.8258723054
CP   3.5598023745  29.4049738097  19.2103363948
CP   2.7022081149  28.6176558958  20.0839003976
CP   2.3418186315  29.0977318919  21.2999110372
H   2.5154381021  30.8329200117  22.7414274493
H   4.0582726741  32.0970020948  21.2988957317
H   5.1713600056  32.4669262940  19.1683097484
H   2.4306824248  27.5788633478  19.7127962493
H   1.7755431948  28.2573351911  21.8542008823
CP   5.2225999530  30.9743359835  17.5540457515
CP   3.9427790554  28.9301261781  17.9541610404
CP   4.7608588879  29.7045857573  17.1185085756
CP   6.0758036610  31.7567941792  16.7003104423
H   3.6186860430  27.9215006897  17.5952273699
CP   5.1607509906  29.2344919570  15.8063790697
CP   6.4337273887  31.2870850173  15.4817560344
H   6.3338251320  32.7839246374  17.0865335356
CP   5.9734618370  30.0275524132  15.0225509016
H   4.7519391138  28.2539034315  15.4359098080
H   7.0409345825  32.1469320050  14.9094632528
H   6.2602372987  29.5424084271  14.0422426149
CP   1.6839350748  33.3715420866  15.0266276517
CP   0.8776798044  34.1664635736  15.8056457595
CP   0.4825461499  33.6839065086  17.1172823774
CP   -0.3459849039  34.4655706253  17.9611800910
CP   0.9381338059  32.4168149178  17.5600584595
CP   1.7883010892  31.6426363645  16.6981781608
CP   2.1580427245  32.1144786285  15.4807138267
H   1.9741887477  33.8692868348  14.0658570850
H   0.4696009789  35.1406163792  15.4866170308
H   -0.6775965519  35.4774621099  17.6098253353
H   2.0497593701  30.6550411570  17.0878790847
H   2.7163579642  31.2594397414  14.9016618485
CP   -0.7274427215  33.9938284550  19.2118482295
CP   0.5571055537  31.9454127762  18.8259077256
CP   -0.2694627116  32.7272290380  19.6603871969
CP   -1.5771337870  34.7762089683  20.0759622514
H   0.8657995041  30.9351110641  19.1780212901
CP   -0.6542843609  32.2504788050  20.9685325384
CP   -1.9310691811  34.2961218755  21.3056224482
H   -1.8320236798  35.7955720690  19.6836419397
CP   -1.4720868689  33.0450004440  21.7516453058
H   -0.2456148216  31.2710526832  21.2885623029
H   -2.5076956626  35.1286222237  21.8857797242
H   -1.7747139032  32.5868903790  22.7379475901
CP   17.7369639477  6.1991878695  12.5600925113
CP   18.5514670851  6.9854783709  11.7759054182
CP   18.9398002242  6.5090857061  10.4738788876
CP   19.7664615293  7.3066219268  9.6287489415
CP   18.4876297278  5.2526814593  10.0188656701
CP   17.6358003781  4.4706177368  10.8831217164
CP   17.2773804952  4.9509733941  12.1080594685
H   17.4571473797  6.7012448402  13.5445335727
H   18.9932720205  7.9961655745  12.1022810720
H   20.1093670122  8.2696272862  9.9469549941
H   17.3808844509  3.4405537314  10.5335335668
H   16.6944246575  4.1010716044  12.6658137553
CP   20.1590507296  6.8152029814  8.3662151223
CP   18.8722407152  4.7739571761  8.7583309392
CP   19.7046623836  5.5558777302  7.9219196557
CP   21.0017431196  7.5995324339  7.5065111868
H   18.5239699589  3.7929001224  8.3984555746
CP   20.0891771273  5.0847529178  6.6110489392
CP   21.3663002032  7.1288189438  6.2833576666
H   21.2578704409  8.6332283580  7.8586569174
CP   20.9076676332  5.8749212686  5.8294762015
H   19.6616226697  4.0897256734  6.3050885187
H   21.9221858887  7.9700014807  5.7335557433
H   21.2129764568  5.3703067231  4.8404427890
CP   16.6191857228  9.2199430498  5.8250988350
CP   15.8091487458  10.0075888744  6.6211041944
CP   15.4106706105  9.5335059669  7.9183124520
CP   14.5929788106  10.3183767132  8.7613547545
CP   15.8658547895  8.2723754397  8.3674468518
CP   16.7298297484  7.4896095183  7.5058577308
CP   17.0843711272  7.9644079813  6.2878875727
H   16.9370038427  9.7079569774  4.8585637817
H   15.3638633058  11.0067929567  6.2626078494
H   14.2511667388  11.3016929930  8.4251356602
H   16.9749358200  6.4593813589  7.8464752286
H   17.6437457429  7.1163567093  5.7253683927
CP   14.2008904492  9.8485680966  10.0168480229
CP   15.4910236610  7.7894487218  9.6237159034
CP   14.6633582163  8.5735914963  10.4573108606
CP   13.3482194566  10.6249905918  10.8811185279
H   15.8036127342  6.7756646069  9.9952282466
CP   14.2637753609  8.1020983744  11.7755118085
CP   12.9922360577  10.1447897753  12.1174896024
H   13.0939863229  11.6353363967  10.5220826628
CP   13.4596312102  8.8946495965  12.5529939663
H   14.6906631779  7.0951821623  12.1211689184
H   12.4174349201  10.9856159186  12.6540737512
H   13.1905261691  8.4582587583  13.5346289283
CP   11.3676128294  6.2089729479  21.7466703371
CP   12.1739579965  6.9857293362  20.9679272984
CP   12.5679338253  6.5220718696  19.6553475853
CP   13.4042154840  7.3020840161  18.8226531709
CP   12.1234453794  5.2454866010  19.2223995363
CP   11.2675896540  4.4691111116  20.0795340260
CP   10.9053307775  4.9514013881  21.2929848871
H   11.0724626324  6.6936564623  22.7171654585
H   12.5705663452  8.0026662659  21.3087748543
H   13.7175560636  8.3216490058  19.1444089889
H   11.0236151340  3.4361353578  19.7035729384
H   10.3086986950  4.0856375268  21.9035958209
CP   13.7885237393  6.8274532929  17.5630248864
CP   12.4941839415  4.7775041074  17.9463629980
CP   13.3300085121  5.5498033169  17.1171954450
CP   14.6351086815  7.6085196696  16.6968817770
H   12.1708591890  3.7688681259  17.5914820931
CP   13.7227057602  5.0858317582  15.8068425472
CP   14.9986716828  7.1311708342  15.4743235790
H   14.8974148283  8.6239024271  17.0614071737
CP   14.5300500419  5.8771218216  15.0284588676
H   13.2917482637  4.0852649795  15.4762731323
H   15.5606073063  7.9801736305  14.9132853547
H   14.8037071444  5.3725104471  14.0296321606
CP   10.2516131717  9.2174132110  15.0254249567
CP   9.4395439965  10.0137351751  15.8093385892
CP   9.0462560995  9.5389298249  17.1221441675
CP   8.2145015419  10.3129653944  17.9613459760
CP   9.5058903300  8.2690452852  17.5663191174
CP   10.3600059164  7.4941777325  16.7008234218
CP   10.7205845961  7.9649776776  15.4855255815
H   10.5524321259  9.7018129057  14.0404074487
H   9.0113367493  10.9992769900  15.4978239510
H   7.8831136822  11.3257678668  17.5970970416
H   10.6234031372  6.4335236439  17.0497979541
H   11.2977631374  7.1311037333  14.9180006069
CP   7.8331250277  9.8389833060  19.2212057631
CP   9.1162956752  7.7948316185  18.8265959422
CP   8.2930561586  8.5692132138  19.6560226814
CP   6.9874598763  10.6132018546  20.0777366998
H   9.4619658018  6.7902390722  19.1851963610
CP   7.9029934605  8.1062452769  20.9647768104
CP   6.6283885334  10.1509787969  21.2990697734
H   6.7271918181  11.6580558779  19.7182562870
CP   7.0875707165  8.9069108859  21.7556157702
H   8.3210847773  7.1150335529  21.3130529371
H   6.0964727644  10.9923695626  21.8724642253
H   6.7730106452  8.4093096035  22.7271814306
CP   17.7326116638  12.2434001738  12.5656145651
CP   18.5458959807  13.0333271605  11.7754982397
CP   18.9455957759  12.5639847340  10.4677150528
CP   19.7664901740  13.3360096718  9.6307763568
CP   18.4860988866  11.2775378098  10.0142046904
CP   17.6233669504  10.5104945382  10.8782949453
CP   17.2681775464  10.9843178983  12.1095528518
H   17.4439601228  12.7399026059  13.5432133184
H   18.9702977695  13.9935437785  12.1150875108
H   20.0899816372  14.3282327184  9.9626179076
H   17.3700971145  9.4761044883  10.5038003975
H   16.7095223412  10.1293036573  12.6850886675
CP   20.1495250231  12.8607818626  8.3623463858
CP   18.8716102477  10.8193867795  8.7480937165
CP   19.7023297724  11.5881988150  7.9190286559
CP   21.0048668274  13.6486309085  7.5102182007
H   18.5334185174  9.8218563814  8.4273509020
CP   20.0925492394  11.1276215541  6.6101609554
CP   21.3629879730  13.1663688806  6.2780076143
H   21.2641756652  14.6780151289  7.8889277769
CP   20.9015989338  11.9116678145  5.8315311674
H   19.6471841559  10.1102273837  6.2889893993
H   21.9600738192  14.0405691921  5.6867237584
H   21.1836314940  11.4159399075  4.8540075211
CP   16.6178577431  15.2586058732  5.8399468562
CP   15.8055580747  16.0587275020  6.6125533928
CP   15.4212937169  15.5828421408  7.9150144036
CP   14.5885410513  16.3611588303  8.7566743064
CP   15.8676489591  14.3077281376  8.3643731704
CP   16.7235538616  13.5264404413  7.5089831290
CP   17.0836242552  13.9989992166  6.2856266016
H   16.9106177302  15.7312415985  4.8920691060
H   15.4051165946  17.0600871512  6.2839049687
H   14.2876162380  17.3561215546  8.4236287285
H   16.9973161562  12.4881318550  7.8851059476
H   17.6439930605  13.1467247442  5.7080780426
CP   14.1960989627  15.8840121350  10.0169661977
CP   15.4868541193  13.8288896865  9.6379093625
CP   14.6591783597  14.6124842392  10.4583429673
CP   13.3578224963  16.6621134060  10.8795728717
H   15.8189502719  12.8533340541  9.9564591547
CP   14.2644580124  14.1353061044  11.7754133432
CP   12.9910085327  16.1924618617  12.1061392861
H   13.1015947182  17.6482592700  10.5175522570
CP   13.4579907412  14.9298563485  12.5496650780
H   14.6920950572  13.1514426059  12.0960290838
H   12.4457075125  17.0380495148  12.7017379231
H   13.1824857948  14.4405801050  13.5369505170
CP   11.3714567744  12.2443781738  21.7494500734
CP   12.1833708111  13.0379318494  20.9666948632
CP   12.5753463412  12.5585515892  19.6607372676
CP   13.4050943988  13.3376113287  18.8158157127
CP   12.1159500278  11.2888058603  19.2133019356
CP   11.2699946843  10.5125185190  20.0707687799