#     Step Nr.          Time[fs]        Kin.[a.u.]          Temp[K]            Pot.[a.u.]        Cons Qty[a.u.]        UsedTime[s]
         0            0.000000         0.000000000         0.000000000         0.000000000         0.000000000         0.000000000
         1            0.100000         0.000000000         0.000000000         0.000000000         0.000000000        65.092979721
         2            0.200000         0.000000000         0.000000000         0.000000000         0.000000000         0.075700257
         3            0.300000         0.000000000         0.000000000         0.000000000         0.000000000         0.076267881
         4            0.400000         0.000000000         0.000000000         0.000000000         0.000000000         0.076503227
         5            0.500000         0.000000000         0.000000000         0.000000000         0.000000000         0.076306515
         6            0.600000         0.000000000         0.000000000         0.000000000         0.000000000         0.076415426
         7            0.700000         0.000000000         0.000000000         0.000000000         0.000000000         0.076661246
         8            0.800000         0.000000000         0.000000000         0.000000000         0.000000000         0.076145513
         9            0.900000         0.000000000         0.000000000         0.000000000         0.000000000         0.075075714
        10            1.000000         0.000000000         0.000000000         0.000000000         0.000000000         0.075361070
        11            1.100000         0.000000000         0.000000000         0.000000000         0.000000000         0.074785309
        12            1.200000         0.000000000         0.000000000         0.000000000         0.000000000         0.075342058
        13            1.300000         0.000000000         0.000000000         0.000000000         0.000000000         0.073966185
        14            1.400000         0.000000000         0.000000000         0.000000000         0.000000000         0.074961949
        15            1.500000         0.000000000         0.000000000         0.000000000         0.000000000         0.074216882
        16            1.600000         0.000000000         0.000000000         0.000000000         0.000000000         0.074281234
        17            1.700000         0.000000000         0.000000000         0.000000000         0.000000000         0.074214602
        18            1.800000         0.000000000         0.000000000         0.000000000         0.000000000         0.074238129
        19            1.900000         0.000000000         0.000000000         0.000000000         0.000000000         0.074311743
        20            2.000000         0.000000000         0.000000000         0.000000000         0.000000000         0.073934265
        21            2.100000         0.000000000         0.000000000         0.000000000         0.000000000         0.073881084
        22            2.200000         0.000000000         0.000000000         0.000000000         0.000000000         0.073505702
        23            2.300000         0.000000000         0.000000000         0.000000000         0.000000000         0.073855960
        24            2.400000         0.000000000         0.000000000         0.000000000         0.000000000         0.073015140
        25            2.500000         0.000000000         0.000000000         0.000000000         0.000000000         0.073329742
        26            2.600000         0.000000000         0.000000000         0.000000000         0.000000000         0.073827298
        27            2.700000         0.000000000         0.000000000         0.000000000         0.000000000         0.073571354
        28            2.800000         0.000000000         0.000000000         0.000000000         0.000000000         0.073051253
        29            2.900000         0.000000000         0.000000000         0.000000000         0.000000000         0.073455302
        30            3.000000         0.000000000         0.000000000         0.000000000         0.000000000         0.073515557
        31            3.100000         0.000000000         0.000000000         0.000000000         0.000000000         0.073666169
        32            3.200000         0.000000000         0.000000000         0.000000000         0.000000000         0.073786275
        33            3.300000         0.000000000         0.000000000         0.000000000         0.000000000         0.073636647
        34            3.400000         0.000000000         0.000000000         0.000000000         0.000000000         0.073226659
        35            3.500000         0.000000000         0.000000000         0.000000000         0.000000000         0.073608219
        36            3.600000         0.000000000         0.000000000         0.000000000         0.000000000         0.073706979
        37            3.700000         0.000000000         0.000000000         0.000000000         0.000000000         0.073595712
        38            3.800000         0.000000000         0.000000000         0.000000000         0.000000000         0.073606847
        39            3.900000         0.000000000         0.000000000         0.000000000         0.000000000         0.073400414
        40            4.000000         0.000000000         0.000000000         0.000000000         0.000000000         0.073380820
        41            4.100000         0.000000000         0.000000000         0.000000000         0.000000000         0.073439504
        42            4.200000         0.000000000         0.000000000         0.000000000         0.000000000         0.073155546
        43            4.300000         0.000000000         0.000000000         0.000000000         0.000000000         0.073512186
        44            4.400000         0.000000000         0.000000000         0.000000000         0.000000000         0.073177969
        45            4.500000         0.000000000         0.000000000         0.000000000         0.000000000         0.073748459
        46            4.600000         0.000000000         0.000000000         0.000000000         0.000000000         0.072998155
        47            4.700000         0.000000000         0.000000000         0.000000000         0.000000000         0.073170016
        48            4.800000         0.000000000         0.000000000         0.000000000         0.000000000         0.073903910
        49            4.900000         0.000000000         0.000000000         0.000000000         0.000000000         0.073349729
        50            5.000000         0.000000000         0.000000000         0.000000000         0.000000000         0.073447947
        51            5.100000         0.000000000         0.000000000         0.000000000         0.000000000         0.073338609
        52            5.200000         0.000000000         0.000000000         0.000000000         0.000000000         0.074179711
        53            5.300000         0.000000000         0.000000000         0.000000000         0.000000000         0.073002809
        54            5.400000         0.000000000         0.000000000         0.000000000         0.000000000         0.073432241
        55            5.500000         0.000000000         0.000000000         0.000000000         0.000000000         0.073314707
        56            5.600000         0.000000000         0.000000000         0.000000000         0.000000000         0.073250313
        57            5.700000         0.000000000         0.000000000         0.000000000         0.000000000         0.073351094
        58            5.800000         0.000000000         0.000000000         0.000000000         0.000000000         0.073485184
        59            5.900000         0.000000000         0.000000000         0.000000000         0.000000000         0.073231626
        60            6.000000         0.000000000         0.000000000         0.000000000         0.000000000         0.073051058
        61            6.100000         0.000000000         0.000000000         0.000000000         0.000000000         0.072393267
        62            6.200000         0.000000000         0.000000000         0.000000000         0.000000000         0.073189543
        63            6.300000         0.000000000         0.000000000         0.000000000         0.000000000         0.073269089
        64            6.400000         0.000000000         0.000000000         0.000000000         0.000000000         0.073709651
        65            6.500000         0.000000000         0.000000000         0.000000000         0.000000000         0.073221445
        66            6.600000         0.000000000         0.000000000         0.000000000         0.000000000         0.073049467
        67            6.700000         0.000000000         0.000000000         0.000000000         0.000000000         0.072937762
        68            6.800000         0.000000000         0.000000000         0.000000000         0.000000000         0.073565567
        69            6.900000         0.000000000         0.000000000         0.000000000         0.000000000         0.073439207
        70            7.000000         0.000000000         0.000000000         0.000000000         0.000000000         0.073614852
        71            7.100000         0.000000000         0.000000000         0.000000000         0.000000000         0.073214807
        72            7.200000         0.000000000         0.000000000         0.000000000         0.000000000         0.073136206
        73            7.300000         0.000000000         0.000000000         0.000000000         0.000000000         0.073371770
        74            7.400000         0.000000000         0.000000000         0.000000000         0.000000000         0.073243759
        75            7.500000         0.000000000         0.000000000         0.000000000         0.000000000         0.074520819
        76            7.600000         0.000000000         0.000000000         0.000000000         0.000000000         0.074009029
        77            7.700000         0.000000000         0.000000000         0.000000000         0.000000000         0.073944348
        78            7.800000         0.000000000         0.000000000         0.000000000         0.000000000         0.073780913
        79            7.900000         0.000000000         0.000000000         0.000000000         0.000000000         0.073690735
        80            8.000000         0.000000000         0.000000000         0.000000000         0.000000000         0.073625692
        81            8.100000         0.000000000         0.000000000         0.000000000         0.000000000         0.073839757
        82            8.200000         0.000000000         0.000000000         0.000000000         0.000000000         0.073552440
        83            8.300000         0.000000000         0.000000000         0.000000000         0.000000000         0.073949942
        84            8.400000         0.000000000         0.000000000         0.000000000         0.000000000         0.073341375
        85            8.500000         0.000000000         0.000000000         0.000000000         0.000000000         0.073364911
        86            8.600000         0.000000000         0.000000000         0.000000000         0.000000000         0.073402685
        87            8.700000         0.000000000         0.000000000         0.000000000         0.000000000         0.073720663
        88            8.800000         0.000000000         0.000000000         0.000000000         0.000000000         0.073733441
        89            8.900000         0.000000000         0.000000000         0.000000000         0.000000000         0.073840507
        90            9.000000         0.000000000         0.000000000         0.000000000         0.000000000         0.073688873
        91            9.100000         0.000000000         0.000000000         0.000000000         0.000000000         0.073428194
        92            9.200000         0.000000000         0.000000000         0.000000000         0.000000000         0.073658793
        93            9.300000         0.000000000         0.000000000         0.000000000         0.000000000         0.073761377
        94            9.400000         0.000000000         0.000000000         0.000000000         0.000000000         0.073686161
        95            9.500000         0.000000000         0.000000000         0.000000000         0.000000000         0.073924550
        96            9.600000         0.000000000         0.000000000         0.000000000         0.000000000         0.073609774
        97            9.700000         0.000000000         0.000000000         0.000000000         0.000000000         0.073609896
        98            9.800000         0.000000000         0.000000000         0.000000000         0.000000000         0.073406708
        99            9.900000         0.000000000         0.000000000         0.000000000         0.000000000         0.073487208
       100           10.000000         0.000000000         0.000000000         0.000000000         0.000000000         0.073552537
       101           10.100000         0.000000000         0.000000000         0.000000000         0.000000000         0.073432014
       102           10.200000         0.000000000         0.000000000         0.000000000         0.000000000         0.073647917
       103           10.300000         0.000000000         0.000000000         0.000000000         0.000000000         0.073390318
       104           10.400000         0.000000000         0.000000000         0.000000000         0.000000000         0.073395662
       105           10.500000         0.000000000         0.000000000         0.000000000         0.000000000         0.073282944
       106           10.600000         0.000000000         0.000000000         0.000000000         0.000000000         0.073541789
       107           10.700000         0.000000000         0.000000000         0.000000000         0.000000000         0.073550655
       108           10.800000         0.000000000         0.000000000         0.000000000         0.000000000         0.073482683
       109           10.900000         0.000000000         0.000000000         0.000000000         0.000000000         0.073577584
       110           11.000000         0.000000000         0.000000000         0.000000000         0.000000000         0.073245258
       111           11.100000         0.000000000         0.000000000         0.000000000         0.000000000         0.073520117
       112           11.200000         0.000000000         0.000000000         0.000000000         0.000000000         0.073411934
       113           11.300000         0.000000000         0.000000000         0.000000000         0.000000000         0.073439844
       114           11.400000         0.000000000         0.000000000         0.000000000         0.000000000         0.073681933
       115           11.500000         0.000000000         0.000000000         0.000000000         0.000000000         0.073295961
       116           11.600000         0.000000000         0.000000000         0.000000000         0.000000000         0.073343295
       117           11.700000         0.000000000         0.000000000         0.000000000         0.000000000         0.073241007
       118           11.800000         0.000000000         0.000000000         0.000000000         0.000000000         0.073210696
       119           11.900000         0.000000000         0.000000000         0.000000000         0.000000000         0.073478856
       120           12.000000         0.000000000         0.000000000         0.000000000         0.000000000         0.073247379
       121           12.100000         0.000000000         0.000000000         0.000000000         0.000000000         0.073567926
       122           12.200000         0.000000000         0.000000000         0.000000000         0.000000000         0.073152288
       123           12.300000         0.000000000         0.000000000         0.000000000         0.000000000         0.073116027
       124           12.400000         0.000000000         0.000000000         0.000000000         0.000000000         0.073326866
       125           12.500000         0.000000000         0.000000000         0.000000000         0.000000000         0.073503091
       126           12.600000         0.000000000         0.000000000         0.000000000         0.000000000         0.073383286
       127           12.700000         0.000000000         0.000000000         0.000000000         0.000000000         0.073404429
       128           12.800000         0.000000000         0.000000000         0.000000000         0.000000000         0.073508870
       129           12.900000         0.000000000         0.000000000         0.000000000         0.000000000         0.073244992
       130           13.000000         0.000000000         0.000000000         0.000000000         0.000000000         0.073431455
       131           13.100000         0.000000000         0.000000000         0.000000000         0.000000000         0.073457208
       132           13.200000         0.000000000         0.000000000         0.000000000         0.000000000         0.072759625
       133           13.300000         0.000000000         0.000000000         0.000000000         0.000000000         0.073000962
       134           13.400000         0.000000000         0.000000000         0.000000000         0.000000000         0.073428917
       135           13.500000         0.000000000         0.000000000         0.000000000         0.000000000         0.073516157
       136           13.600000         0.000000000         0.000000000         0.000000000         0.000000000         0.073217177
       137           13.700000         0.000000000         0.000000000         0.000000000         0.000000000         0.073206871
       138           13.800000         0.000000000         0.000000000         0.000000000         0.000000000         0.073522674
       139           13.900000         0.000000000         0.000000000         0.000000000         0.000000000         0.073330752
       140           14.000000         0.000000000         0.000000000         0.000000000         0.000000000         0.073674588
       141           14.100000         0.000000000         0.000000000         0.000000000         0.000000000         0.073339568
       142           14.200000         0.000000000         0.000000000         0.000000000         0.000000000         0.073293730
       143           14.300000         0.000000000         0.000000000         0.000000000         0.000000000         0.073229373
       144           14.400000         0.000000000         0.000000000         0.000000000         0.000000000         0.073410287
       145           14.500000         0.000000000         0.000000000         0.000000000         0.000000000         0.073424865
       146           14.600000         0.000000000         0.000000000         0.000000000         0.000000000         0.073480802
       147           14.700000         0.000000000         0.000000000         0.000000000         0.000000000         0.073512125
       148           14.800000         0.000000000         0.000000000         0.000000000         0.000000000         0.073174797
       149           14.900000         0.000000000         0.000000000         0.000000000         0.000000000         0.073442579
       150           15.000000         0.000000000         0.000000000         0.000000000         0.000000000         0.073402884
       151           15.100000         0.000000000         0.000000000         0.000000000         0.000000000         0.073516180
       152           15.200000         0.000000000         0.000000000         0.000000000         0.000000000         0.073672400
       153           15.300000         0.000000000         0.000000000         0.000000000         0.000000000         0.073518371
       154           15.400000         0.000000000         0.000000000         0.000000000         0.000000000         0.073429921
       155           15.500000         0.000000000         0.000000000         0.000000000         0.000000000         0.073273803
       156           15.600000         0.000000000         0.000000000         0.000000000         0.000000000         0.073276003
       157           15.700000         0.000000000         0.000000000         0.000000000         0.000000000         0.073545123
       158           15.800000         0.000000000         0.000000000         0.000000000         0.000000000         0.073497814
       159           15.900000         0.000000000         0.000000000         0.000000000         0.000000000         0.073805618
       160           16.000000         0.000000000         0.000000000         0.000000000         0.000000000         0.073184207
       161           16.100000         0.000000000         0.000000000         0.000000000         0.000000000         0.073154054
       162           16.200000         0.000000000         0.000000000         0.000000000         0.000000000         0.073176414
       163           16.300000         0.000000000         0.000000000         0.000000000         0.000000000         0.073698752
       164           16.400000         0.000000000         0.000000000         0.000000000         0.000000000         0.073577603
       165           16.500000         0.000000000         0.000000000         0.000000000         0.000000000         0.073569927
       166           16.600000         0.000000000         0.000000000         0.000000000         0.000000000         0.073473252
       167           16.700000         0.000000000         0.000000000         0.000000000         0.000000000         0.073219586
       168           16.800000         0.000000000         0.000000000         0.000000000         0.000000000         0.073371131
       169           16.900000         0.000000000         0.000000000         0.000000000         0.000000000         0.073427551
       170           17.000000         0.000000000         0.000000000         0.000000000         0.000000000         0.073479970
       171           17.100000         0.000000000         0.000000000         0.000000000         0.000000000         0.073705869
       172           17.200000         0.000000000         0.000000000         0.000000000         0.000000000         0.073402273
       173           17.300000         0.000000000         0.000000000         0.000000000         0.000000000         0.073365306
       174           17.400000         0.000000000         0.000000000         0.000000000         0.000000000         0.073228889
       175           17.500000         0.000000000         0.000000000         0.000000000         0.000000000         0.073257110
       176           17.600000         0.000000000         0.000000000         0.000000000         0.000000000         0.073527572
       177           17.700000         0.000000000         0.000000000         0.000000000         0.000000000         0.073294526
       178           17.800000         0.000000000         0.000000000         0.000000000         0.000000000         0.073746944
       179           17.900000         0.000000000         0.000000000         0.000000000         0.000000000         0.073206911
       180           18.000000         0.000000000         0.000000000         0.000000000         0.000000000         0.073157151
       181           18.100000         0.000000000         0.000000000         0.000000000         0.000000000         0.073282583
       182           18.200000         0.000000000         0.000000000         0.000000000         0.000000000         0.073496035
       183           18.300000         0.000000000         0.000000000         0.000000000         0.000000000         0.073449838
       184           18.400000         0.000000000         0.000000000         0.000000000         0.000000000         0.073442761
       185           18.500000         0.000000000         0.000000000         0.000000000         0.000000000         0.073619722
       186           18.600000         0.000000000         0.000000000         0.000000000         0.000000000         0.074346454
       187           18.700000         0.000000000         0.000000000         0.000000000         0.000000000         0.060801426
       188           18.800000         0.000000000         0.000000000         0.000000000         0.000000000         0.040002102
       189           18.900000         0.000000000         0.000000000         0.000000000         0.000000000         0.039880104
       190           19.000000         0.000000000         0.000000000         0.000000000         0.000000000         0.039954739
       191           19.100000         0.000000000         0.000000000         0.000000000         0.000000000         0.039795864
       192           19.200000         0.000000000         0.000000000         0.000000000         0.000000000         0.039661037
       193           19.300000         0.000000000         0.000000000         0.000000000         0.000000000         0.039546317
       194           19.400000         0.000000000         0.000000000         0.000000000         0.000000000         0.039707928
       195           19.500000         0.000000000         0.000000000         0.000000000         0.000000000         0.039860455
       196           19.600000         0.000000000         0.000000000         0.000000000         0.000000000         0.039720363
       197           19.700000         0.000000000         0.000000000         0.000000000         0.000000000         0.039984229
       198           19.800000         0.000000000         0.000000000         0.000000000         0.000000000         0.039607972
       199           19.900000         0.000000000         0.000000000         0.000000000         0.000000000         0.039772015
       200           20.000000         0.000000000         0.000000000         0.000000000         0.000000000         0.039689634
