 DBCSR| Multiplication driver                                               XSMM
 DBCSR| Multrec recursion limit                                              512
 DBCSR| Multiplication stack size                                           1000
 DBCSR| Maximum elements for images                                    UNLIMITED
 DBCSR| Randmat seed                                                    12341313
 DBCSR| Multiplication size stacks                                             3


  **** **** ******  **  PROGRAM STARTED AT               2021-01-14 05:47:13.924
 ***** ** ***  *** **   PROGRAM STARTED ON               bulstake.phys.ucl.ac.uk
 **    ****   ******    PROGRAM STARTED BY                             sgiannini
 ***** **    ** ** **   PROGRAM PROCESS ID                                 12728
  **** **  *******  **  PROGRAM STARTED IN /scratch/sgiannini/FOB-SH-REGTESTS_/3
                                           2-XXXX_code_extension_V2/run-fssh-MTS
                                           1_FROZEN_H

 CP2K| version string:                    CP2K version 4.0 (Development Version)
 CP2K| source code revision number:                                  git:3649ac3
 CP2K| cp2kflags: libint fftw3 libxc quip smm_dnn smm libxsmm libderiv_max_am1=5
 CP2K|             libint_max_am=6
 CP2K| is freely available from                            https://www.cp2k.org/
 CP2K| Program compiled at                          Wed  6 Jan 14:38:30 GMT 2021
 CP2K| Program compiled on                               bulstake.phys.ucl.ac.uk
 CP2K| Program compiled for                                                local
 CP2K| Data directory path           /scratch/sgiannini/flavoured-cptk/cp2k/data
 CP2K| Input file name                                                   run.inp

 GLOBAL| Force Environment number                                              1
 GLOBAL| Basis set file name                                           POTENTIAL
 GLOBAL| MM Potential file name                                     MM_POTENTIAL
 GLOBAL| Coordinate file name                                       pos-init.xyz
 GLOBAL| Force Environment number                                              2
 GLOBAL| Basis set file name                                           POTENTIAL
 GLOBAL| MM Potential file name                                     MM_POTENTIAL
 GLOBAL| Coordinate file name                                       pos-init.xyz
 GLOBAL| Force Environment number                                              3
 GLOBAL| Basis set file name                                           POTENTIAL
 GLOBAL| MM Potential file name                                     MM_POTENTIAL
 GLOBAL| Coordinate file name                                       pos-init.xyz
 GLOBAL| Method name                                                        CP2K
 GLOBAL| Project name                                                        run
 GLOBAL| Preferred FFT library                                             FFTW3
 GLOBAL| Preferred diagonalization lib.                                       SL
 GLOBAL| Run type                                                             MD
 GLOBAL| All-to-all communication in single precision                          F
 GLOBAL| FFTs using library dependent lengths                                  F
 GLOBAL| Global print level                                                  LOW
 GLOBAL| Total number of message passing processes                             1
 GLOBAL| Number of threads for this process                                    1
 GLOBAL| This output is from process                                           0
 GLOBAL| CPU model name :  Intel(R) Xeon(R) CPU E5-2687W v4 @ 3.00GHz

 MEMORY| system memory details [Kb]
 MEMORY|                        rank 0           min           max       average
 MEMORY| MemTotal             65894336      65894336      65894336      65894336
 MEMORY| MemFree               1150548       1150548       1150548       1150548
 MEMORY| Buffers                  8744          8744          8744          8744
 MEMORY| Cached               55012216      55012216      55012216      55012216
 MEMORY| Slab                  1947384       1947384       1947384       1947384
 MEMORY| SReclaimable          1698944       1698944       1698944       1698944
 MEMORY| MemLikelyFree        57870452      57870452      57870452      57870452

 TOTAL NUMBER OF FORCE EVALS           3
 NOTE:n_subforce_eval           2
 DECOMP =  T
 DECOMP =  T

 MD| Molecular Dynamics Protocol 
 MD| Ensemble Type                                                           NVE
 MD| Number of Time Steps                                                    200
 MD| Time Step [fs]                                                         0.10
 MD| Temperature [K]                                                      400.00
 MD| Temperature tolerance [K]                                              0.00
 MD| Print MD information every                                        1 step(s)
 MD| File type     Print frequency[steps]                             File names
 MD| Coordinates          200                                      run-pos-1.xyz
 MD| Velocities             1                                      run-vel-1.xyz
 MD| Energies               1                                         run-1.ener
 MD| Dump                 200                                      run-1.restart

 ROT| Rotational Analysis Info 
 ROT| Principal axes and moments of inertia in atomic units:
 ROT|                                1                 2                 3
 ROT| EIGENVALUES            0.319196005E+10   0.583971964E+10   0.882037602E+10
 ROT|      X                     0.997631408       0.066105605       0.019016393
 ROT|      Y                     0.066118536      -0.997811774      -0.000051363
 ROT|      Z                    -0.018971385      -0.001308578       0.999819171
 ROT| Numer of Rotovibrational vectors:     6

 Calculation of degrees of freedom
                                                      Number of atoms:       900
                                 Number of Intramolecular constraints:         0
                                 Number of Intermolecular constraints:         0
                                  Invariants(translation + rotations):         3
                                                   Degrees of freedom:      2697


 Restraints Information
                                  Number of Intramolecular restraints:         0
                                  Number of Intermolecular restraints:         0

 *** WARNING in motion/thermostat/thermostat_methods.F:280 :: Thermostat ***
 *** for Particles has been defined but the ensemble provided does not   ***
 *** support thermostat for Particles! Ignoring thermostat input.        ***

 ************************** Velocities initialization **************************
 Initial Temperature                                                    564.84 K
 COM velocity:           -0.000000000004     -0.000000000000      0.000000000001
 *******************************************************************************

 FIRST CALL: force_env_calc_energy_force
 RESTART_KEY F
 FOB-SH: ALLOCATION OF S MATRICES
 Lookup table files:
 ../topologies/S_psigma.txt                                                      
 ../topologies/S_ppi.txt                                                         
 ../topologies/S_psigma_carbon_sulfur.dat                                        
 ../topologies/S_ppi_carbon_sulfur.dat                                           
 ../topologies/S_psigma_sulfur_sulfur.dat                                        
 ../topologies/S_ppi_sulfur_sulfur.dat                                           
 C-S psigma nrows     1166666
 C-S ppi nrows     1166666
 S-S psigma nrows     1166666
 S-S ppi nrows     1166666
 FOBSH| ACTIVE STATE =            3

 ENERGY| Total FORCE_EVAL ( MIXED ) energy (a.u.):             0.000000000000000

 STEP NUMBER                  =            0
 CPU TIME [s]                 =    0.0000000000000000        0.0000000000000000     

 MD_ENERGIES| Initialization proceeding


 ******************************** GO CP2K GO! **********************************
 INITIAL POTENTIAL ENERGY[hartree]     =                      0.000000000000E+00
 INITIAL KINETIC ENERGY[hartree]       =                      0.000000000000E+00
 INITIAL TEMPERATURE[K]                =                                   0.000
 INITIAL VOLUME[bohr^3]                =                      0.580604601118E+05
 INITIAL CELL LNTHS[bohr]   =      0.7651501E+02   0.5624770E+02   0.1634991E+02
 INITIAL CELL ANGLS[deg]    =      0.9000000E+02   0.1244000E+03   0.9000000E+02
 ******************************** GO CP2K GO! **********************************
 FOBSH| *** OFF-DIAGONAL GRADIENT CALCULATION
 FOBSH| Put former active state           3 in new active state           3
 FOBSH| ACTIVE STATE =            3

 ENERGY| Total FORCE_EVAL ( MIXED ) energy (a.u.):             0.000000000000000

 FOBSH| CASE1: no hop and no trivial crossing
 ENTER integrator.F
 STEP NUMBER                  =            1
 CPU TIME [s]                 =    65.092979721259326        65.092979721259326     

 *******************************************************************************
 ENSEMBLE TYPE                =                                              NVE
 STEP NUMBER                  =                                                1
 TIME [fs]                    =                                         0.100000
 CONSERVED QUANTITY [hartree] =                               0.000000000000E+00

                                              INSTANTANEOUS             AVERAGES
 CPU TIME [s]                 =                       65.09                65.09
 ENERGY DRIFT PER ATOM [K]    =          0.000000000000E+00   0.000000000000E+00
 POTENTIAL ENERGY[hartree]    =          0.000000000000E+00   0.000000000000E+00
 KINETIC ENERGY [hartree]     =          0.000000000000E+00   0.000000000000E+00
 TEMPERATURE [K]              =                       0.000                0.000
 *******************************************************************************

 FOBSH| *** OFF-DIAGONAL GRADIENT CALCULATION
 FOBSH| Put former active state           3 in new active state           3
 FOBSH| ACTIVE STATE =            3

 ENERGY| Total FORCE_EVAL ( MIXED ) energy (a.u.):             0.000000000000000

 FOBSH| CASE1: no hop and no trivial crossing
 ENTER integrator.F
 STEP NUMBER                  =            2
 CPU TIME [s]                 =    7.5700256973505020E-002   32.584339989116415     

 *******************************************************************************
 ENSEMBLE TYPE                =                                              NVE
 STEP NUMBER                  =                                                2
 TIME [fs]                    =                                         0.200000
 CONSERVED QUANTITY [hartree] =                               0.000000000000E+00

                                              INSTANTANEOUS             AVERAGES
 CPU TIME [s]                 =                        0.08                32.58
 ENERGY DRIFT PER ATOM [K]    =          0.000000000000E+00   0.000000000000E+00
 POTENTIAL ENERGY[hartree]    =          0.000000000000E+00   0.000000000000E+00
 KINETIC ENERGY [hartree]     =          0.000000000000E+00   0.000000000000E+00
 TEMPERATURE [K]              =                       0.000                0.000
 *******************************************************************************

 FOBSH| *** OFF-DIAGONAL GRADIENT CALCULATION
 FOBSH| Put former active state           3 in new active state           3
 FOBSH| ACTIVE STATE =            3

 ENERGY| Total FORCE_EVAL ( MIXED ) energy (a.u.):             0.000000000000000

 FOBSH| CASE1: no hop and no trivial crossing
 ENTER integrator.F
 STEP NUMBER                  =            3
 CPU TIME [s]                 =    7.6267880853265524E-002   21.748315953028698     

 *******************************************************************************
 ENSEMBLE TYPE                =                                              NVE
 STEP NUMBER                  =                                                3
 TIME [fs]                    =                                         0.300000
 CONSERVED QUANTITY [hartree] =                               0.000000000000E+00

                                              INSTANTANEOUS             AVERAGES
 CPU TIME [s]                 =                        0.08                21.75
 ENERGY DRIFT PER ATOM [K]    =          0.000000000000E+00   0.000000000000E+00
 POTENTIAL ENERGY[hartree]    =          0.000000000000E+00   0.000000000000E+00
 KINETIC ENERGY [hartree]     =          0.000000000000E+00   0.000000000000E+00
 TEMPERATURE [K]              =                       0.000                0.000
 *******************************************************************************

 FOBSH| *** OFF-DIAGONAL GRADIENT CALCULATION
 FOBSH| Put former active state           3 in new active state           3
 FOBSH| ACTIVE STATE =            3

 ENERGY| Total FORCE_EVAL ( MIXED ) energy (a.u.):             0.000000000000000

 FOBSH| CASE1: no hop and no trivial crossing
 ENTER integrator.F
 STEP NUMBER                  =            4
 CPU TIME [s]                 =    7.6503226999193430E-002   16.330362771521322     

 *******************************************************************************
 ENSEMBLE TYPE                =                                              NVE
 STEP NUMBER                  =                                                4
 TIME [fs]                    =                                         0.400000
 CONSERVED QUANTITY [hartree] =                               0.000000000000E+00

                                              INSTANTANEOUS             AVERAGES
 CPU TIME [s]                 =                        0.08                16.33
 ENERGY DRIFT PER ATOM [K]    =          0.000000000000E+00   0.000000000000E+00
 POTENTIAL ENERGY[hartree]    =          0.000000000000E+00   0.000000000000E+00
 KINETIC ENERGY [hartree]     =          0.000000000000E+00   0.000000000000E+00
 TEMPERATURE [K]              =                       0.000                0.000
 *******************************************************************************

 FOBSH| *** OFF-DIAGONAL GRADIENT CALCULATION
 FOBSH| Put former active state           3 in new active state           3
 FOBSH| ACTIVE STATE =            3

 ENERGY| Total FORCE_EVAL ( MIXED ) energy (a.u.):             0.000000000000000

 FOBSH| CASE1: no hop and no trivial crossing
 ENTER integrator.F
 STEP NUMBER                  =            5
 CPU TIME [s]                 =    7.6306514907628298E-002   13.079551520198585     

 *******************************************************************************
 ENSEMBLE TYPE                =                                              NVE
 STEP NUMBER                  =                                                5
 TIME [fs]                    =                                         0.500000
 CONSERVED QUANTITY [hartree] =                               0.000000000000E+00

                                              INSTANTANEOUS             AVERAGES
 CPU TIME [s]                 =                        0.08                13.08
 ENERGY DRIFT PER ATOM [K]    =          0.000000000000E+00   0.000000000000E+00
 POTENTIAL ENERGY[hartree]    =          0.000000000000E+00   0.000000000000E+00
 KINETIC ENERGY [hartree]     =          0.000000000000E+00   0.000000000000E+00
 TEMPERATURE [K]              =                       0.000                0.000
 *******************************************************************************

 FOBSH| *** OFF-DIAGONAL GRADIENT CALCULATION
 FOBSH| Put former active state           3 in new active state           3
 FOBSH| ACTIVE STATE =            3

 ENERGY| Total FORCE_EVAL ( MIXED ) energy (a.u.):             0.000000000000000

 FOBSH| CASE1: no hop and no trivial crossing
 ENTER integrator.F
 STEP NUMBER                  =            6
 CPU TIME [s]                 =    7.6415426097810268E-002   10.912362171181787     

 *******************************************************************************
 ENSEMBLE TYPE                =                                              NVE
 STEP NUMBER                  =                                                6
 TIME [fs]                    =                                         0.600000
 CONSERVED QUANTITY [hartree] =                               0.000000000000E+00

                                              INSTANTANEOUS             AVERAGES
 CPU TIME [s]                 =                        0.08                10.91
 ENERGY DRIFT PER ATOM [K]    =          0.000000000000E+00   0.000000000000E+00
 POTENTIAL ENERGY[hartree]    =          0.000000000000E+00   0.000000000000E+00
 KINETIC ENERGY [hartree]     =          0.000000000000E+00   0.000000000000E+00
 TEMPERATURE [K]              =                       0.000                0.000
 *******************************************************************************

 FOBSH| *** OFF-DIAGONAL GRADIENT CALCULATION
 FOBSH| Put former active state           3 in new active state           3
 FOBSH| ACTIVE STATE =            3

 ENERGY| Total FORCE_EVAL ( MIXED ) energy (a.u.):             0.000000000000000

 FOBSH| CASE1: no hop and no trivial crossing
 ENTER integrator.F
 STEP NUMBER                  =            7
 CPU TIME [s]                 =    7.6661245897412300E-002   9.3644048961411617     

 *******************************************************************************
 ENSEMBLE TYPE                =                                              NVE
 STEP NUMBER                  =                                                7
 TIME [fs]                    =                                         0.700000
 CONSERVED QUANTITY [hartree] =                               0.000000000000E+00

                                              INSTANTANEOUS             AVERAGES
 CPU TIME [s]                 =                        0.08                 9.36
 ENERGY DRIFT PER ATOM [K]    =          0.000000000000E+00   0.000000000000E+00
 POTENTIAL ENERGY[hartree]    =          0.000000000000E+00   0.000000000000E+00
 KINETIC ENERGY [hartree]     =          0.000000000000E+00   0.000000000000E+00
 TEMPERATURE [K]              =                       0.000                0.000
 *******************************************************************************

 FOBSH| *** OFF-DIAGONAL GRADIENT CALCULATION
 FOBSH| Put former active state           3 in new active state           3
 FOBSH| ACTIVE STATE =            3

 ENERGY| Total FORCE_EVAL ( MIXED ) energy (a.u.):             0.000000000000000

 FOBSH| CASE1: no hop and no trivial crossing
 ENTER integrator.F
 STEP NUMBER                  =            8
 CPU TIME [s]                 =    7.6145512983202934E-002   8.2033724732464162     

 *******************************************************************************
 ENSEMBLE TYPE                =                                              NVE
 STEP NUMBER                  =                                                8
 TIME [fs]                    =                                         0.800000
 CONSERVED QUANTITY [hartree] =                               0.000000000000E+00

                                              INSTANTANEOUS             AVERAGES
 CPU TIME [s]                 =                        0.08                 8.20
 ENERGY DRIFT PER ATOM [K]    =          0.000000000000E+00   0.000000000000E+00
 POTENTIAL ENERGY[hartree]    =          0.000000000000E+00   0.000000000000E+00
 KINETIC ENERGY [hartree]     =          0.000000000000E+00   0.000000000000E+00
 TEMPERATURE [K]              =                       0.000                0.000
 *******************************************************************************

 FOBSH| *** OFF-DIAGONAL GRADIENT CALCULATION
 FOBSH| Put former active state           3 in new active state           3
 FOBSH| ACTIVE STATE =            3

 ENERGY| Total FORCE_EVAL ( MIXED ) energy (a.u.):             0.000000000000000

 FOBSH| CASE1: no hop and no trivial crossing
 ENTER integrator.F
 STEP NUMBER                  =            9
 CPU TIME [s]                 =    7.5075713917613029E-002   7.3002283888765485     

 *******************************************************************************
 ENSEMBLE TYPE                =                                              NVE
 STEP NUMBER                  =                                                9
 TIME [fs]                    =                                         0.900000
 CONSERVED QUANTITY [hartree] =                               0.000000000000E+00

                                              INSTANTANEOUS             AVERAGES
 CPU TIME [s]                 =                        0.08                 7.30
 ENERGY DRIFT PER ATOM [K]    =          0.000000000000E+00   0.000000000000E+00
 POTENTIAL ENERGY[hartree]    =          0.000000000000E+00   0.000000000000E+00
 KINETIC ENERGY [hartree]     =          0.000000000000E+00   0.000000000000E+00
 TEMPERATURE [K]              =                       0.000                0.000
 *******************************************************************************

 FOBSH| *** OFF-DIAGONAL GRADIENT CALCULATION
 FOBSH| Put former active state           3 in new active state           3
 FOBSH| ACTIVE STATE =            3

 ENERGY| Total FORCE_EVAL ( MIXED ) energy (a.u.):             0.000000000000000

 FOBSH| CASE1: no hop and no trivial crossing
 ENTER integrator.F
 STEP NUMBER                  =           10
 CPU TIME [s]                 =    7.5361070223152637E-002   6.5777416570112095     

 *******************************************************************************
 ENSEMBLE TYPE                =                                              NVE
 STEP NUMBER                  =                                               10
 TIME [fs]                    =                                         1.000000
 CONSERVED QUANTITY [hartree] =                               0.000000000000E+00

                                              INSTANTANEOUS             AVERAGES
 CPU TIME [s]                 =                        0.08                 6.58
 ENERGY DRIFT PER ATOM [K]    =          0.000000000000E+00   0.000000000000E+00
 POTENTIAL ENERGY[hartree]    =          0.000000000000E+00   0.000000000000E+00
 KINETIC ENERGY [hartree]     =          0.000000000000E+00   0.000000000000E+00
 TEMPERATURE [K]              =                       0.000                0.000
 *******************************************************************************

 FOBSH| *** OFF-DIAGONAL GRADIENT CALCULATION
 FOBSH| Put former active state           3 in new active state           3
 FOBSH| ACTIVE STATE =            3

 ENERGY| Total FORCE_EVAL ( MIXED ) energy (a.u.):             0.000000000000000

 FOBSH| CASE1: no hop and no trivial crossing
 ENTER integrator.F
 STEP NUMBER                  =           11
 CPU TIME [s]                 =    7.4785308912396431E-002   5.9865638071840452     

 *******************************************************************************
 ENSEMBLE TYPE                =                                              NVE
 STEP NUMBER                  =                                               11
 TIME [fs]                    =                                         1.100000
 CONSERVED QUANTITY [hartree] =                               0.000000000000E+00

                                              INSTANTANEOUS             AVERAGES
 CPU TIME [s]                 =                        0.07                 5.99
 ENERGY DRIFT PER ATOM [K]    =          0.000000000000E+00   0.000000000000E+00
 POTENTIAL ENERGY[hartree]    =          0.000000000000E+00   0.000000000000E+00
 KINETIC ENERGY [hartree]     =          0.000000000000E+00   0.000000000000E+00
 TEMPERATURE [K]              =                       0.000                0.000
 *******************************************************************************

 FOBSH| *** OFF-DIAGONAL GRADIENT CALCULATION
 FOBSH| Put former active state           3 in new active state           3
 FOBSH| ACTIVE STATE =            3

 ENERGY| Total FORCE_EVAL ( MIXED ) energy (a.u.):             0.000000000000000

 FOBSH| CASE1: no hop and no trivial crossing
 ENTER integrator.F
 STEP NUMBER                  =           12
 CPU TIME [s]                 =    7.5342058204114437E-002   5.4939619947690499     

 *******************************************************************************
 ENSEMBLE TYPE                =                                              NVE
 STEP NUMBER                  =                                               12
 TIME [fs]                    =                                         1.200000
 CONSERVED QUANTITY [hartree] =                               0.000000000000E+00

                                              INSTANTANEOUS             AVERAGES
 CPU TIME [s]                 =                        0.08                 5.49
 ENERGY DRIFT PER ATOM [K]    =          0.000000000000E+00   0.000000000000E+00
 POTENTIAL ENERGY[hartree]    =          0.000000000000E+00   0.000000000000E+00
 KINETIC ENERGY [hartree]     =          0.000000000000E+00   0.000000000000E+00
 TEMPERATURE [K]              =                       0.000                0.000
 *******************************************************************************

 FOBSH| *** OFF-DIAGONAL GRADIENT CALCULATION
 FOBSH| Put former active state           3 in new active state           3
 FOBSH| ACTIVE STATE =            3

 ENERGY| Total FORCE_EVAL ( MIXED ) energy (a.u.):             0.000000000000000

 FOBSH| CASE1: no hop and no trivial crossing
 ENTER integrator.F
 STEP NUMBER                  =           13
 CPU TIME [s]                 =    7.3966184630990028E-002   5.0770392401430451     

 *******************************************************************************
 ENSEMBLE TYPE                =                                              NVE
 STEP NUMBER                  =                                               13
 TIME [fs]                    =                                         1.300000
 CONSERVED QUANTITY [hartree] =                               0.000000000000E+00

                                              INSTANTANEOUS             AVERAGES
 CPU TIME [s]                 =                        0.07                 5.08
 ENERGY DRIFT PER ATOM [K]    =          0.000000000000E+00   0.000000000000E+00
 POTENTIAL ENERGY[hartree]    =          0.000000000000E+00   0.000000000000E+00
 KINETIC ENERGY [hartree]     =          0.000000000000E+00   0.000000000000E+00
 TEMPERATURE [K]              =                       0.000                0.000
 *******************************************************************************

 FOBSH| *** OFF-DIAGONAL GRADIENT CALCULATION
 FOBSH| Put former active state           3 in new active state           3
 FOBSH| ACTIVE STATE =            3

 ENERGY| Total FORCE_EVAL ( MIXED ) energy (a.u.):             0.000000000000000

 FOBSH| CASE1: no hop and no trivial crossing
 ENTER integrator.F
 STEP NUMBER                  =           14
 CPU TIME [s]                 =    7.4961949139833450E-002   4.7197480050713869     

 *******************************************************************************
 ENSEMBLE TYPE                =                                              NVE
 STEP NUMBER                  =                                               14
 TIME [fs]                    =                                         1.400000
 CONSERVED QUANTITY [hartree] =                               0.000000000000E+00

                                              INSTANTANEOUS             AVERAGES
 CPU TIME [s]                 =                        0.07                 4.72
 ENERGY DRIFT PER ATOM [K]    =          0.000000000000E+00   0.000000000000E+00
 POTENTIAL ENERGY[hartree]    =          0.000000000000E+00   0.000000000000E+00
 KINETIC ENERGY [hartree]     =          0.000000000000E+00   0.000000000000E+00
 TEMPERATURE [K]              =                       0.000                0.000
 *******************************************************************************

 FOBSH| *** OFF-DIAGONAL GRADIENT CALCULATION
 FOBSH| Put former active state           3 in new active state           3
 FOBSH| ACTIVE STATE =            3

 ENERGY| Total FORCE_EVAL ( MIXED ) energy (a.u.):             0.000000000000000

 FOBSH| CASE1: no hop and no trivial crossing
 ENTER integrator.F
 STEP NUMBER                  =           15
 CPU TIME [s]                 =    7.4216882232576609E-002   4.4100459302154658     

 *******************************************************************************
 ENSEMBLE TYPE                =                                              NVE
 STEP NUMBER                  =                                               15
 TIME [fs]                    =                                         1.500000
 CONSERVED QUANTITY [hartree] =                               0.000000000000E+00

                                              INSTANTANEOUS             AVERAGES
 CPU TIME [s]                 =                        0.07                 4.41
 ENERGY DRIFT PER ATOM [K]    =          0.000000000000E+00   0.000000000000E+00
 POTENTIAL ENERGY[hartree]    =          0.000000000000E+00   0.000000000000E+00
 KINETIC ENERGY [hartree]     =          0.000000000000E+00   0.000000000000E+00
 TEMPERATURE [K]              =                       0.000                0.000
 *******************************************************************************

 FOBSH| *** OFF-DIAGONAL GRADIENT CALCULATION
 FOBSH| Put former active state           3 in new active state           3
 FOBSH| ACTIVE STATE =            3

 ENERGY| Total FORCE_EVAL ( MIXED ) energy (a.u.):             0.000000000000000

 FOBSH| CASE1: no hop and no trivial crossing
 ENTER integrator.F
 STEP NUMBER                  =           16
 CPU TIME [s]                 =    7.4281233828514814E-002   4.1390606366912817     

 *******************************************************************************
 ENSEMBLE TYPE                =                                              NVE
 STEP NUMBER                  =                                               16
 TIME [fs]                    =                                         1.600000
 CONSERVED QUANTITY [hartree] =                               0.000000000000E+00

                                              INSTANTANEOUS             AVERAGES
 CPU TIME [s]                 =                        0.07                 4.14
 ENERGY DRIFT PER ATOM [K]    =          0.000000000000E+00   0.000000000000E+00
 POTENTIAL ENERGY[hartree]    =          0.000000000000E+00   0.000000000000E+00
 KINETIC ENERGY [hartree]     =          0.000000000000E+00   0.000000000000E+00
 TEMPERATURE [K]              =                       0.000                0.000
 *******************************************************************************

 FOBSH| *** OFF-DIAGONAL GRADIENT CALCULATION
 FOBSH| Put former active state           3 in new active state           3
 FOBSH| ACTIVE STATE =            3

 ENERGY| Total FORCE_EVAL ( MIXED ) energy (a.u.):             0.000000000000000

 FOBSH| CASE1: no hop and no trivial crossing
 ENTER integrator.F
 STEP NUMBER                  =           17
 CPU TIME [s]                 =    7.4214601889252663E-002   3.8999520464088091     

 *******************************************************************************
 ENSEMBLE TYPE                =                                              NVE
 STEP NUMBER                  =                                               17
 TIME [fs]                    =                                         1.700000
 CONSERVED QUANTITY [hartree] =                               0.000000000000E+00

                                              INSTANTANEOUS             AVERAGES
 CPU TIME [s]                 =                        0.07                 3.90
 ENERGY DRIFT PER ATOM [K]    =          0.000000000000E+00   0.000000000000E+00
 POTENTIAL ENERGY[hartree]    =          0.000000000000E+00   0.000000000000E+00
 KINETIC ENERGY [hartree]     =          0.000000000000E+00   0.000000000000E+00
 TEMPERATURE [K]              =                       0.000                0.000
 *******************************************************************************

 FOBSH| *** OFF-DIAGONAL GRADIENT CALCULATION
 FOBSH| Put former active state           3 in new active state           3
 FOBSH| ACTIVE STATE =            3

 ENERGY| Total FORCE_EVAL ( MIXED ) energy (a.u.):             0.000000000000000

 FOBSH| CASE1: no hop and no trivial crossing
 ENTER integrator.F
 STEP NUMBER                  =           18
 CPU TIME [s]                 =    7.4238128960132599E-002   3.6874123843283271     

 *******************************************************************************
 ENSEMBLE TYPE                =                                              NVE
 STEP NUMBER                  =                                               18
 TIME [fs]                    =                                         1.800000
 CONSERVED QUANTITY [hartree] =                               0.000000000000E+00

                                              INSTANTANEOUS             AVERAGES
 CPU TIME [s]                 =                        0.07                 3.69
 ENERGY DRIFT PER ATOM [K]    =          0.000000000000E+00   0.000000000000E+00
 POTENTIAL ENERGY[hartree]    =          0.000000000000E+00   0.000000000000E+00
 KINETIC ENERGY [hartree]     =          0.000000000000E+00   0.000000000000E+00
 TEMPERATURE [K]              =                       0.000                0.000
 *******************************************************************************

 FOBSH| *** OFF-DIAGONAL GRADIENT CALCULATION
 FOBSH| Put former active state           3 in new active state           3
 FOBSH| ACTIVE STATE =            3

 ENERGY| Total FORCE_EVAL ( MIXED ) energy (a.u.):             0.000000000000000

 FOBSH| CASE1: no hop and no trivial crossing
 ENTER integrator.F
 STEP NUMBER                  =           19
 CPU TIME [s]                 =    7.4311743024736643E-002   3.4972491926807696     

 *******************************************************************************
 ENSEMBLE TYPE                =                                              NVE
 STEP NUMBER                  =                                               19
 TIME [fs]                    =                                         1.900000
 CONSERVED QUANTITY [hartree] =                               0.000000000000E+00

                                              INSTANTANEOUS             AVERAGES
 CPU TIME [s]                 =                        0.07                 3.50
 ENERGY DRIFT PER ATOM [K]    =          0.000000000000E+00   0.000000000000E+00
 POTENTIAL ENERGY[hartree]    =          0.000000000000E+00   0.000000000000E+00
 KINETIC ENERGY [hartree]     =          0.000000000000E+00   0.000000000000E+00
 TEMPERATURE [K]              =                       0.000                0.000
 *******************************************************************************

 FOBSH| *** OFF-DIAGONAL GRADIENT CALCULATION
 FOBSH| Put former active state           3 in new active state           3
 FOBSH| ACTIVE STATE =            3

 ENERGY| Total FORCE_EVAL ( MIXED ) energy (a.u.):             0.000000000000000

 FOBSH| CASE1: no hop and no trivial crossing
 ENTER integrator.F
 STEP NUMBER                  =           20
 CPU TIME [s]                 =    7.3934264946728945E-002   3.3260834462940680     

 *******************************************************************************
 ENSEMBLE TYPE                =                                              NVE
 STEP NUMBER                  =                                               20
 TIME [fs]                    =                                         2.000000
 CONSERVED QUANTITY [hartree] =                               0.000000000000E+00

                                              INSTANTANEOUS             AVERAGES
 CPU TIME [s]                 =                        0.07                 3.33
 ENERGY DRIFT PER ATOM [K]    =          0.000000000000E+00   0.000000000000E+00
 POTENTIAL ENERGY[hartree]    =          0.000000000000E+00   0.000000000000E+00
 KINETIC ENERGY [hartree]     =          0.000000000000E+00   0.000000000000E+00
 TEMPERATURE [K]              =                       0.000                0.000
 *******************************************************************************

 FOBSH| *** OFF-DIAGONAL GRADIENT CALCULATION
 FOBSH| Put former active state           3 in new active state           3
 FOBSH| ACTIVE STATE =            3

 ENERGY| Total FORCE_EVAL ( MIXED ) energy (a.u.):             0.000000000000000

 FOBSH| CASE1: no hop and no trivial crossing
 ENTER integrator.F
 STEP NUMBER                  =           21
 CPU TIME [s]                 =    7.3881084099411964E-002   3.1712166671419411     

 *******************************************************************************
 ENSEMBLE TYPE                =                                              NVE
 STEP NUMBER                  =                                               21
 TIME [fs]                    =                                         2.100000
 CONSERVED QUANTITY [hartree] =                               0.000000000000E+00

                                              INSTANTANEOUS             AVERAGES
 CPU TIME [s]                 =                        0.07                 3.17
 ENERGY DRIFT PER ATOM [K]    =          0.000000000000E+00   0.000000000000E+00
 POTENTIAL ENERGY[hartree]    =          0.000000000000E+00   0.000000000000E+00
 KINETIC ENERGY [hartree]     =          0.000000000000E+00   0.000000000000E+00
 TEMPERATURE [K]              =                       0.000                0.000
 *******************************************************************************

 FOBSH| *** OFF-DIAGONAL GRADIENT CALCULATION
 FOBSH| Put former active state           3 in new active state           3
 FOBSH| ACTIVE STATE =            3

 ENERGY| Total FORCE_EVAL ( MIXED ) energy (a.u.):             0.000000000000000

 FOBSH| CASE1: no hop and no trivial crossing
 ENTER integrator.F
 STEP NUMBER                  =           22
 CPU TIME [s]                 =    7.3505701962858438E-002   3.0304116232701648     

 *******************************************************************************
 ENSEMBLE TYPE                =                                              NVE
 STEP NUMBER                  =                                               22
 TIME [fs]                    =                                         2.200000
 CONSERVED QUANTITY [hartree] =                               0.000000000000E+00

                                              INSTANTANEOUS             AVERAGES
 CPU TIME [s]                 =                        0.07                 3.03
 ENERGY DRIFT PER ATOM [K]    =          0.000000000000E+00   0.000000000000E+00
 POTENTIAL ENERGY[hartree]    =          0.000000000000E+00   0.000000000000E+00
 KINETIC ENERGY [hartree]     =          0.000000000000E+00   0.000000000000E+00
 TEMPERATURE [K]              =                       0.000                0.000
 *******************************************************************************

 FOBSH| *** OFF-DIAGONAL GRADIENT CALCULATION
 FOBSH| Put former active state           3 in new active state           3
 FOBSH| ACTIVE STATE =            3

 ENERGY| Total FORCE_EVAL ( MIXED ) energy (a.u.):             0.000000000000000

 FOBSH| CASE1: no hop and no trivial crossing
 ENTER integrator.F
 STEP NUMBER                  =           23
 CPU TIME [s]                 =    7.3855960275977850E-002   2.9018657248791131     

 *******************************************************************************
 ENSEMBLE TYPE                =                                              NVE
 STEP NUMBER                  =                                               23
 TIME [fs]                    =                                         2.300000
 CONSERVED QUANTITY [hartree] =                               0.000000000000E+00

                                              INSTANTANEOUS             AVERAGES
 CPU TIME [s]                 =                        0.07                 2.90
 ENERGY DRIFT PER ATOM [K]    =          0.000000000000E+00   0.000000000000E+00
 POTENTIAL ENERGY[hartree]    =          0.000000000000E+00   0.000000000000E+00
 KINETIC ENERGY [hartree]     =          0.000000000000E+00   0.000000000000E+00
 TEMPERATURE [K]              =                       0.000                0.000
 *******************************************************************************

 FOBSH| *** OFF-DIAGONAL GRADIENT CALCULATION
 FOBSH| Put former active state           3 in new active state           3
 FOBSH| ACTIVE STATE =            3

 ENERGY| Total FORCE_EVAL ( MIXED ) energy (a.u.):             0.000000000000000

 FOBSH| CASE1: no hop and no trivial crossing
 ENTER integrator.F
 STEP NUMBER                  =           24
 CPU TIME [s]                 =    7.3015139903873205E-002   2.7839969505051450     

 *******************************************************************************
 ENSEMBLE TYPE                =                                              NVE
 STEP NUMBER                  =                                               24
 TIME [fs]                    =                                         2.400000
 CONSERVED QUANTITY [hartree] =                               0.000000000000E+00

                                              INSTANTANEOUS             AVERAGES
 CPU TIME [s]                 =                        0.07                 2.78
 ENERGY DRIFT PER ATOM [K]    =          0.000000000000E+00   0.000000000000E+00
 POTENTIAL ENERGY[hartree]    =          0.000000000000E+00   0.000000000000E+00
 KINETIC ENERGY [hartree]     =          0.000000000000E+00   0.000000000000E+00
 TEMPERATURE [K]              =                       0.000                0.000
 *******************************************************************************

 FOBSH| *** OFF-DIAGONAL GRADIENT CALCULATION
 FOBSH| Put former active state           3 in new active state           3
 FOBSH| ACTIVE STATE =            3

 ENERGY| Total FORCE_EVAL ( MIXED ) energy (a.u.):             0.000000000000000

 FOBSH| CASE1: no hop and no trivial crossing
 ENTER integrator.F
 STEP NUMBER                  =           25
 CPU TIME [s]                 =    7.3329742066562176E-002   2.6755702621676019     

 *******************************************************************************
 ENSEMBLE TYPE                =                                              NVE
 STEP NUMBER                  =                                               25
 TIME [fs]                    =                                         2.500000
 CONSERVED QUANTITY [hartree] =                               0.000000000000E+00

                                              INSTANTANEOUS             AVERAGES
 CPU TIME [s]                 =                        0.07                 2.68
 ENERGY DRIFT PER ATOM [K]    =          0.000000000000E+00   0.000000000000E+00
 POTENTIAL ENERGY[hartree]    =          0.000000000000E+00   0.000000000000E+00
 KINETIC ENERGY [hartree]     =          0.000000000000E+00   0.000000000000E+00
 TEMPERATURE [K]              =                       0.000                0.000
 *******************************************************************************

 FOBSH| *** OFF-DIAGONAL GRADIENT CALCULATION
 FOBSH| Put former active state           3 in new active state           3
 FOBSH| ACTIVE STATE =            3

 ENERGY| Total FORCE_EVAL ( MIXED ) energy (a.u.):             0.000000000000000

 FOBSH| CASE1: no hop and no trivial crossing
 ENTER integrator.F
 STEP NUMBER                  =           26
 CPU TIME [s]                 =    7.3827297892421484E-002   2.5755032250800949     

 *******************************************************************************
 ENSEMBLE TYPE                =                                              NVE
 STEP NUMBER                  =                                               26
 TIME [fs]                    =                                         2.600000
 CONSERVED QUANTITY [hartree] =                               0.000000000000E+00

                                              INSTANTANEOUS             AVERAGES
 CPU TIME [s]                 =                        0.07                 2.58
 ENERGY DRIFT PER ATOM [K]    =          0.000000000000E+00   0.000000000000E+00
 POTENTIAL ENERGY[hartree]    =          0.000000000000E+00   0.000000000000E+00
 KINETIC ENERGY [hartree]     =          0.000000000000E+00   0.000000000000E+00
 TEMPERATURE [K]              =                       0.000                0.000
 *******************************************************************************

 FOBSH| *** OFF-DIAGONAL GRADIENT CALCULATION
 FOBSH| Put former active state           3 in new active state           3
 FOBSH| ACTIVE STATE =            3

 ENERGY| Total FORCE_EVAL ( MIXED ) energy (a.u.):             0.000000000000000

 FOBSH| CASE1: no hop and no trivial crossing
 ENTER integrator.F
 STEP NUMBER                  =           27
 CPU TIME [s]                 =    7.3571354150772095E-002   2.4828390817123420     

 *******************************************************************************
 ENSEMBLE TYPE                =                                              NVE
 STEP NUMBER                  =                                               27
 TIME [fs]                    =                                         2.700000
 CONSERVED QUANTITY [hartree] =                               0.000000000000E+00

                                              INSTANTANEOUS             AVERAGES
 CPU TIME [s]                 =                        0.07                 2.48
 ENERGY DRIFT PER ATOM [K]    =          0.000000000000E+00   0.000000000000E+00
 POTENTIAL ENERGY[hartree]    =          0.000000000000E+00   0.000000000000E+00
 KINETIC ENERGY [hartree]     =          0.000000000000E+00   0.000000000000E+00
 TEMPERATURE [K]              =                       0.000                0.000
 *******************************************************************************

 FOBSH| *** OFF-DIAGONAL GRADIENT CALCULATION
 FOBSH| Put former active state           3 in new active state           3
 FOBSH| ACTIVE STATE =            3

 ENERGY| Total FORCE_EVAL ( MIXED ) energy (a.u.):             0.000000000000000

 FOBSH| CASE1: no hop and no trivial crossing
 ENTER integrator.F
 STEP NUMBER                  =           28
 CPU TIME [s]                 =    7.3051252868026495E-002   2.3967752306821879     

 *******************************************************************************
 ENSEMBLE TYPE                =                                              NVE
 STEP NUMBER                  =                                               28
 TIME [fs]                    =                                         2.800000
 CONSERVED QUANTITY [hartree] =                               0.000000000000E+00

                                              INSTANTANEOUS             AVERAGES
 CPU TIME [s]                 =                        0.07                 2.40
 ENERGY DRIFT PER ATOM [K]    =          0.000000000000E+00   0.000000000000E+00
 POTENTIAL ENERGY[hartree]    =          0.000000000000E+00   0.000000000000E+00
 KINETIC ENERGY [hartree]     =          0.000000000000E+00   0.000000000000E+00
 TEMPERATURE [K]              =                       0.000                0.000
 *******************************************************************************

 FOBSH| *** OFF-DIAGONAL GRADIENT CALCULATION
 FOBSH| Put former active state           3 in new active state           3
 FOBSH| ACTIVE STATE =            3

 ENERGY| Total FORCE_EVAL ( MIXED ) energy (a.u.):             0.000000000000000

 FOBSH| CASE1: no hop and no trivial crossing
 ENTER integrator.F
 STEP NUMBER                  =           29
 CPU TIME [s]                 =    7.3455302044749260E-002   2.3166607503843450     

 *******************************************************************************
 ENSEMBLE TYPE                =                                              NVE
 STEP NUMBER                  =                                               29
 TIME [fs]                    =                                         2.900000
 CONSERVED QUANTITY [hartree] =                               0.000000000000E+00

                                              INSTANTANEOUS             AVERAGES
 CPU TIME [s]                 =                        0.07                 2.32
 ENERGY DRIFT PER ATOM [K]    =          0.000000000000E+00   0.000000000000E+00
 POTENTIAL ENERGY[hartree]    =          0.000000000000E+00   0.000000000000E+00
 KINETIC ENERGY [hartree]     =          0.000000000000E+00   0.000000000000E+00
 TEMPERATURE [K]              =                       0.000                0.000
 *******************************************************************************

 FOBSH| *** OFF-DIAGONAL GRADIENT CALCULATION
 FOBSH| Put former active state           3 in new active state           3
 FOBSH| ACTIVE STATE =            3

 ENERGY| Total FORCE_EVAL ( MIXED ) energy (a.u.):             0.000000000000000

 FOBSH| CASE1: no hop and no trivial crossing
 ENTER integrator.F
 STEP NUMBER                  =           30
 CPU TIME [s]                 =    7.3515556752681732E-002   2.2418892439299563     

 *******************************************************************************
 ENSEMBLE TYPE                =                                              NVE
 STEP NUMBER                  =                                               30
 TIME [fs]                    =                                         3.000000
 CONSERVED QUANTITY [hartree] =                               0.000000000000E+00

                                              INSTANTANEOUS             AVERAGES
 CPU TIME [s]                 =                        0.07                 2.24
 ENERGY DRIFT PER ATOM [K]    =          0.000000000000E+00   0.000000000000E+00
 POTENTIAL ENERGY[hartree]    =          0.000000000000E+00   0.000000000000E+00
 KINETIC ENERGY [hartree]     =          0.000000000000E+00   0.000000000000E+00
 TEMPERATURE [K]              =                       0.000                0.000
 *******************************************************************************

 FOBSH| *** OFF-DIAGONAL GRADIENT CALCULATION
 FOBSH| Put former active state           3 in new active state           3
 FOBSH| ACTIVE STATE =            3

 ENERGY| Total FORCE_EVAL ( MIXED ) energy (a.u.):             0.000000000000000

 FOBSH| CASE1: no hop and no trivial crossing
 ENTER integrator.F
 STEP NUMBER                  =           31
 CPU TIME [s]                 =    7.3666169308125973E-002   2.1719465641034459     

 *******************************************************************************
 ENSEMBLE TYPE                =                                              NVE
 STEP NUMBER                  =                                               31
 TIME [fs]                    =                                         3.100000
 CONSERVED QUANTITY [hartree] =                               0.000000000000E+00

                                              INSTANTANEOUS             AVERAGES
 CPU TIME [s]                 =                        0.07                 2.17
 ENERGY DRIFT PER ATOM [K]    =          0.000000000000E+00   0.000000000000E+00
 POTENTIAL ENERGY[hartree]    =          0.000000000000E+00   0.000000000000E+00
 KINETIC ENERGY [hartree]     =          0.000000000000E+00   0.000000000000E+00
 TEMPERATURE [K]              =                       0.000                0.000
 *******************************************************************************

 FOBSH| *** OFF-DIAGONAL GRADIENT CALCULATION
 FOBSH| Put former active state           3 in new active state           3
 FOBSH| ACTIVE STATE =            3

 ENERGY| Total FORCE_EVAL ( MIXED ) energy (a.u.):             0.000000000000000

 FOBSH| CASE1: no hop and no trivial crossing
 ENTER integrator.F
 STEP NUMBER                  =           32
 CPU TIME [s]                 =    7.3786274995654821E-002   2.1063790550688273     

 *******************************************************************************
 ENSEMBLE TYPE                =                                              NVE
 STEP NUMBER                  =                                               32
 TIME [fs]                    =                                         3.200000
 CONSERVED QUANTITY [hartree] =                               0.000000000000E+00

                                              INSTANTANEOUS             AVERAGES
 CPU TIME [s]                 =                        0.07                 2.11
 ENERGY DRIFT PER ATOM [K]    =          0.000000000000E+00   0.000000000000E+00
 POTENTIAL ENERGY[hartree]    =          0.000000000000E+00   0.000000000000E+00
 KINETIC ENERGY [hartree]     =          0.000000000000E+00   0.000000000000E+00
 TEMPERATURE [K]              =                       0.000                0.000
 *******************************************************************************

 FOBSH| *** OFF-DIAGONAL GRADIENT CALCULATION
 FOBSH| Put former active state           3 in new active state           3
 FOBSH| ACTIVE STATE =            3

 ENERGY| Total FORCE_EVAL ( MIXED ) energy (a.u.):             0.000000000000000

 FOBSH| CASE1: no hop and no trivial crossing
 ENTER integrator.F
 STEP NUMBER                  =           33
 CPU TIME [s]                 =    7.3636646848171949E-002   2.0447808002742622     

 *******************************************************************************
 ENSEMBLE TYPE                =                                              NVE
 STEP NUMBER                  =                                               33
 TIME [fs]                    =                                         3.300000
 CONSERVED QUANTITY [hartree] =                               0.000000000000E+00

                                              INSTANTANEOUS             AVERAGES
 CPU TIME [s]                 =                        0.07                 2.04
 ENERGY DRIFT PER ATOM [K]    =          0.000000000000E+00   0.000000000000E+00
 POTENTIAL ENERGY[hartree]    =          0.000000000000E+00   0.000000000000E+00
 KINETIC ENERGY [hartree]     =          0.000000000000E+00   0.000000000000E+00
 TEMPERATURE [K]              =                       0.000                0.000
 *******************************************************************************

 FOBSH| *** OFF-DIAGONAL GRADIENT CALCULATION
 FOBSH| Put former active state           3 in new active state           3
 FOBSH| ACTIVE STATE =            3

 ENERGY| Total FORCE_EVAL ( MIXED ) energy (a.u.):             0.000000000000000

 FOBSH| CASE1: no hop and no trivial crossing
 ENTER integrator.F
 STEP NUMBER                  =           34
 CPU TIME [s]                 =    7.3226659093052149E-002   1.9867939137689326     

 *******************************************************************************
 ENSEMBLE TYPE                =                                              NVE
 STEP NUMBER                  =                                               34
 TIME [fs]                    =                                         3.400000
 CONSERVED QUANTITY [hartree] =                               0.000000000000E+00

                                              INSTANTANEOUS             AVERAGES
 CPU TIME [s]                 =                        0.07                 1.99
 ENERGY DRIFT PER ATOM [K]    =          0.000000000000E+00   0.000000000000E+00
 POTENTIAL ENERGY[hartree]    =          0.000000000000E+00   0.000000000000E+00
 KINETIC ENERGY [hartree]     =          0.000000000000E+00   0.000000000000E+00
 TEMPERATURE [K]              =                       0.000                0.000
 *******************************************************************************

 FOBSH| *** OFF-DIAGONAL GRADIENT CALCULATION
 FOBSH| Put former active state           3 in new active state           3
 FOBSH| ACTIVE STATE =            3

 ENERGY| Total FORCE_EVAL ( MIXED ) energy (a.u.):             0.000000000000000

 FOBSH| CASE1: no hop and no trivial crossing
 ENTER integrator.F
 STEP NUMBER                  =           35
 CPU TIME [s]                 =    7.3608219157904387E-002   1.9321314653514747     

 *******************************************************************************
 ENSEMBLE TYPE                =                                              NVE
 STEP NUMBER                  =                                               35
 TIME [fs]                    =                                         3.500000
 CONSERVED QUANTITY [hartree] =                               0.000000000000E+00

                                              INSTANTANEOUS             AVERAGES
 CPU TIME [s]                 =                        0.07                 1.93
 ENERGY DRIFT PER ATOM [K]    =          0.000000000000E+00   0.000000000000E+00
 POTENTIAL ENERGY[hartree]    =          0.000000000000E+00   0.000000000000E+00
 KINETIC ENERGY [hartree]     =          0.000000000000E+00   0.000000000000E+00
 TEMPERATURE [K]              =                       0.000                0.000
 *******************************************************************************

 FOBSH| *** OFF-DIAGONAL GRADIENT CALCULATION
 FOBSH| Put former active state           3 in new active state           3
 FOBSH| ACTIVE STATE =            3

 ENERGY| Total FORCE_EVAL ( MIXED ) energy (a.u.):             0.000000000000000

 FOBSH| CASE1: no hop and no trivial crossing
 ENTER integrator.F
 STEP NUMBER                  =           36
 CPU TIME [s]                 =    7.3706978932023048E-002   1.8805085629509344     

 *******************************************************************************
 ENSEMBLE TYPE                =                                              NVE
 STEP NUMBER                  =                                               36
 TIME [fs]                    =                                         3.600000
 CONSERVED QUANTITY [hartree] =                               0.000000000000E+00

                                              INSTANTANEOUS             AVERAGES
 CPU TIME [s]                 =                        0.07                 1.88
 ENERGY DRIFT PER ATOM [K]    =          0.000000000000E+00   0.000000000000E+00
 POTENTIAL ENERGY[hartree]    =          0.000000000000E+00   0.000000000000E+00
 KINETIC ENERGY [hartree]     =          0.000000000000E+00   0.000000000000E+00
 TEMPERATURE [K]              =                       0.000                0.000
 *******************************************************************************

 FOBSH| *** OFF-DIAGONAL GRADIENT CALCULATION
 FOBSH| Put former active state           3 in new active state           3
 FOBSH| ACTIVE STATE =            3

 ENERGY| Total FORCE_EVAL ( MIXED ) energy (a.u.):             0.000000000000000

 FOBSH| CASE1: no hop and no trivial crossing
 ENTER integrator.F
 STEP NUMBER                  =           37
 CPU TIME [s]                 =    7.3595711961388588E-002   1.8316730804917576     

 *******************************************************************************
 ENSEMBLE TYPE                =                                              NVE
 STEP NUMBER                  =                                               37
 TIME [fs]                    =                                         3.700000
 CONSERVED QUANTITY [hartree] =                               0.000000000000E+00

                                              INSTANTANEOUS             AVERAGES
 CPU TIME [s]                 =                        0.07                 1.83
 ENERGY DRIFT PER ATOM [K]    =          0.000000000000E+00   0.000000000000E+00
 POTENTIAL ENERGY[hartree]    =          0.000000000000E+00   0.000000000000E+00
 KINETIC ENERGY [hartree]     =          0.000000000000E+00   0.000000000000E+00
 TEMPERATURE [K]              =                       0.000                0.000
 *******************************************************************************

 FOBSH| *** OFF-DIAGONAL GRADIENT CALCULATION
 FOBSH| Put former active state           3 in new active state           3
 FOBSH| ACTIVE STATE =            3

 ENERGY| Total FORCE_EVAL ( MIXED ) energy (a.u.):             0.000000000000000

 FOBSH| CASE1: no hop and no trivial crossing
 ENTER integrator.F
 STEP NUMBER                  =           38
 CPU TIME [s]                 =    7.3606846854090691E-002   1.7854081796065557     

 *******************************************************************************
 ENSEMBLE TYPE                =                                              NVE
 STEP NUMBER                  =                                               38
 TIME [fs]                    =                                         3.800000
 CONSERVED QUANTITY [hartree] =                               0.000000000000E+00

                                              INSTANTANEOUS             AVERAGES
 CPU TIME [s]                 =                        0.07                 1.79
 ENERGY DRIFT PER ATOM [K]    =          0.000000000000E+00   0.000000000000E+00
 POTENTIAL ENERGY[hartree]    =          0.000000000000E+00   0.000000000000E+00
 KINETIC ENERGY [hartree]     =          0.000000000000E+00   0.000000000000E+00
 TEMPERATURE [K]              =                       0.000                0.000
 *******************************************************************************

 FOBSH| *** OFF-DIAGONAL GRADIENT CALCULATION
 FOBSH| Put former active state           3 in new active state           3
 FOBSH| ACTIVE STATE =            3

 ENERGY| Total FORCE_EVAL ( MIXED ) energy (a.u.):             0.000000000000000

 FOBSH| CASE1: no hop and no trivial crossing
 ENTER integrator.F
 STEP NUMBER                  =           39
 CPU TIME [s]                 =    7.3400414083153009E-002   1.7415105445931351     

 *******************************************************************************
 ENSEMBLE TYPE                =                                              NVE
 STEP NUMBER                  =                                               39
 TIME [fs]                    =                                         3.900000
 CONSERVED QUANTITY [hartree] =                               0.000000000000E+00

                                              INSTANTANEOUS             AVERAGES
 CPU TIME [s]                 =                        0.07                 1.74
 ENERGY DRIFT PER ATOM [K]    =          0.000000000000E+00   0.000000000000E+00
 POTENTIAL ENERGY[hartree]    =          0.000000000000E+00   0.000000000000E+00
 KINETIC ENERGY [hartree]     =          0.000000000000E+00   0.000000000000E+00
 TEMPERATURE [K]              =                       0.000                0.000
 *******************************************************************************

 FOBSH| *** OFF-DIAGONAL GRADIENT CALCULATION
 FOBSH| Put former active state           3 in new active state           3
 FOBSH| ACTIVE STATE =            3

 ENERGY| Total FORCE_EVAL ( MIXED ) energy (a.u.):             0.000000000000000

 FOBSH| CASE1: no hop and no trivial crossing
 ENTER integrator.F
 STEP NUMBER                  =           40
 CPU TIME [s]                 =    7.3380819987505674E-002   1.6998073014779944     

 *******************************************************************************
 ENSEMBLE TYPE                =                                              NVE
 STEP NUMBER                  =                                               40
 TIME [fs]                    =                                         4.000000
 CONSERVED QUANTITY [hartree] =                               0.000000000000E+00

                                              INSTANTANEOUS             AVERAGES
 CPU TIME [s]                 =                        0.07                 1.70
 ENERGY DRIFT PER ATOM [K]    =          0.000000000000E+00   0.000000000000E+00
 POTENTIAL ENERGY[hartree]    =          0.000000000000E+00   0.000000000000E+00
 KINETIC ENERGY [hartree]     =          0.000000000000E+00   0.000000000000E+00
 TEMPERATURE [K]              =                       0.000                0.000
 *******************************************************************************

 FOBSH| *** OFF-DIAGONAL GRADIENT CALCULATION
 FOBSH| Put former active state           3 in new active state           3
 FOBSH| ACTIVE STATE =            3

 ENERGY| Total FORCE_EVAL ( MIXED ) energy (a.u.):             0.000000000000000

 FOBSH| CASE1: no hop and no trivial crossing
 ENTER integrator.F
 STEP NUMBER                  =           41
 CPU TIME [s]                 =    7.3439504019916058E-002   1.6601397942229195     

 *******************************************************************************
 ENSEMBLE TYPE                =                                              NVE
 STEP NUMBER                  =                                               41
 TIME [fs]                    =                                         4.100000
 CONSERVED QUANTITY [hartree] =                               0.000000000000E+00

                                              INSTANTANEOUS             AVERAGES
 CPU TIME [s]                 =                        0.07                 1.66
 ENERGY DRIFT PER ATOM [K]    =          0.000000000000E+00   0.000000000000E+00
 POTENTIAL ENERGY[hartree]    =          0.000000000000E+00   0.000000000000E+00
 KINETIC ENERGY [hartree]     =          0.000000000000E+00   0.000000000000E+00
 TEMPERATURE [K]              =                       0.000                0.000
 *******************************************************************************

 FOBSH| *** OFF-DIAGONAL GRADIENT CALCULATION
 FOBSH| Put former active state           3 in new active state           3
 FOBSH| ACTIVE STATE =            3

 ENERGY| Total FORCE_EVAL ( MIXED ) energy (a.u.):             0.000000000000000

 FOBSH| CASE1: no hop and no trivial crossing
 ENTER integrator.F
 STEP NUMBER                  =           42
 CPU TIME [s]                 =    7.3155546095222235E-002   1.6223544549817837     

 *******************************************************************************
 ENSEMBLE TYPE                =                                              NVE
 STEP NUMBER                  =                                               42
 TIME [fs]                    =                                         4.200000
 CONSERVED QUANTITY [hartree] =                               0.000000000000E+00

                                              INSTANTANEOUS             AVERAGES
 CPU TIME [s]                 =                        0.07                 1.62
 ENERGY DRIFT PER ATOM [K]    =          0.000000000000E+00   0.000000000000E+00
 POTENTIAL ENERGY[hartree]    =          0.000000000000E+00   0.000000000000E+00
 KINETIC ENERGY [hartree]     =          0.000000000000E+00   0.000000000000E+00
 TEMPERATURE [K]              =                       0.000                0.000
 *******************************************************************************

 FOBSH| *** OFF-DIAGONAL GRADIENT CALCULATION
 FOBSH| Put former active state           3 in new active state           3
 FOBSH| ACTIVE STATE =            3

 ENERGY| Total FORCE_EVAL ( MIXED ) energy (a.u.):             0.000000000000000

 FOBSH| CASE1: no hop and no trivial crossing
 ENTER integrator.F
 STEP NUMBER                  =           43
 CPU TIME [s]                 =    7.3512185830622911E-002   1.5863348673271056     

 *******************************************************************************
 ENSEMBLE TYPE                =                                              NVE
 STEP NUMBER                  =                                               43
 TIME [fs]                    =                                         4.300000
 CONSERVED QUANTITY [hartree] =                               0.000000000000E+00

                                              INSTANTANEOUS             AVERAGES
 CPU TIME [s]                 =                        0.07                 1.59
 ENERGY DRIFT PER ATOM [K]    =          0.000000000000E+00   0.000000000000E+00
 POTENTIAL ENERGY[hartree]    =          0.000000000000E+00   0.000000000000E+00
 KINETIC ENERGY [hartree]     =          0.000000000000E+00   0.000000000000E+00
 TEMPERATURE [K]              =                       0.000                0.000
 *******************************************************************************

 FOBSH| *** OFF-DIAGONAL GRADIENT CALCULATION
 FOBSH| Put former active state           3 in new active state           3
 FOBSH| ACTIVE STATE =            3

 ENERGY| Total FORCE_EVAL ( MIXED ) energy (a.u.):             0.000000000000000

 FOBSH| CASE1: no hop and no trivial crossing
 ENTER integrator.F
 STEP NUMBER                  =           44
 CPU TIME [s]                 =    7.3177969083189964E-002   1.5519449378215620     

 *******************************************************************************
 ENSEMBLE TYPE                =                                              NVE
 STEP NUMBER                  =                                               44
 TIME [fs]                    =                                         4.400000
 CONSERVED QUANTITY [hartree] =                               0.000000000000E+00

                                              INSTANTANEOUS             AVERAGES
 CPU TIME [s]                 =                        0.07                 1.55
 ENERGY DRIFT PER ATOM [K]    =          0.000000000000E+00   0.000000000000E+00
 POTENTIAL ENERGY[hartree]    =          0.000000000000E+00   0.000000000000E+00
 KINETIC ENERGY [hartree]     =          0.000000000000E+00   0.000000000000E+00
 TEMPERATURE [K]              =                       0.000                0.000
 *******************************************************************************

 FOBSH| *** OFF-DIAGONAL GRADIENT CALCULATION
 FOBSH| Put former active state           3 in new active state           3
 FOBSH| ACTIVE STATE =            3

 ENERGY| Total FORCE_EVAL ( MIXED ) energy (a.u.):             0.000000000000000

 FOBSH| CASE1: no hop and no trivial crossing
 ENTER integrator.F
 STEP NUMBER                  =           45
 CPU TIME [s]                 =    7.3748459108173847E-002   1.5190961271834869     

 *******************************************************************************
 ENSEMBLE TYPE                =                                              NVE
 STEP NUMBER                  =                                               45
 TIME [fs]                    =                                         4.500000
 CONSERVED QUANTITY [hartree] =                               0.000000000000E+00

                                              INSTANTANEOUS             AVERAGES
 CPU TIME [s]                 =                        0.07                 1.52
 ENERGY DRIFT PER ATOM [K]    =          0.000000000000E+00   0.000000000000E+00
 POTENTIAL ENERGY[hartree]    =          0.000000000000E+00   0.000000000000E+00
 KINETIC ENERGY [hartree]     =          0.000000000000E+00   0.000000000000E+00
 TEMPERATURE [K]              =                       0.000                0.000
 *******************************************************************************

 FOBSH| *** OFF-DIAGONAL GRADIENT CALCULATION
 FOBSH| Put former active state           3 in new active state           3
 FOBSH| ACTIVE STATE =            3

 ENERGY| Total FORCE_EVAL ( MIXED ) energy (a.u.):             0.000000000000000

 FOBSH| CASE1: no hop and no trivial crossing
 ENTER integrator.F
 STEP NUMBER                  =           46
 CPU TIME [s]                 =    7.2998154908418655E-002   1.4876592147427243     

 *******************************************************************************
 ENSEMBLE TYPE                =                                              NVE
 STEP NUMBER                  =                                               46
 TIME [fs]                    =                                         4.600000
 CONSERVED QUANTITY [hartree] =                               0.000000000000E+00

                                              INSTANTANEOUS             AVERAGES
 CPU TIME [s]                 =                        0.07                 1.49
 ENERGY DRIFT PER ATOM [K]    =          0.000000000000E+00   0.000000000000E+00
 POTENTIAL ENERGY[hartree]    =          0.000000000000E+00   0.000000000000E+00
 KINETIC ENERGY [hartree]     =          0.000000000000E+00   0.000000000000E+00
 TEMPERATURE [K]              =                       0.000                0.000
 *******************************************************************************

 FOBSH| *** OFF-DIAGONAL GRADIENT CALCULATION
 FOBSH| Put former active state           3 in new active state           3
 FOBSH| ACTIVE STATE =            3

 ENERGY| Total FORCE_EVAL ( MIXED ) energy (a.u.):             0.000000000000000

 FOBSH| CASE1: no hop and no trivial crossing
 ENTER integrator.F
 STEP NUMBER                  =           47
 CPU TIME [s]                 =    7.3170016054064035E-002   1.4575636998770081     

 *******************************************************************************
 ENSEMBLE TYPE                =                                              NVE
 STEP NUMBER                  =                                               47
 TIME [fs]                    =                                         4.700000
 CONSERVED QUANTITY [hartree] =                               0.000000000000E+00

                                              INSTANTANEOUS             AVERAGES
 CPU TIME [s]                 =                        0.07                 1.46
 ENERGY DRIFT PER ATOM [K]    =          0.000000000000E+00   0.000000000000E+00
 POTENTIAL ENERGY[hartree]    =          0.000000000000E+00   0.000000000000E+00
 KINETIC ENERGY [hartree]     =          0.000000000000E+00   0.000000000000E+00
 TEMPERATURE [K]              =                       0.000                0.000
 *******************************************************************************

 FOBSH| *** OFF-DIAGONAL GRADIENT CALCULATION
 FOBSH| Put former active state           3 in new active state           3
 FOBSH| ACTIVE STATE =            3

 ENERGY| Total FORCE_EVAL ( MIXED ) energy (a.u.):             0.000000000000000

 FOBSH| CASE1: no hop and no trivial crossing
 ENTER integrator.F
 STEP NUMBER                  =           48
 CPU TIME [s]                 =    7.3903909884393215E-002   1.4287374542521620     

 *******************************************************************************
 ENSEMBLE TYPE                =                                              NVE
 STEP NUMBER                  =                                               48
 TIME [fs]                    =                                         4.800000
 CONSERVED QUANTITY [hartree] =                               0.000000000000E+00

                                              INSTANTANEOUS             AVERAGES
 CPU TIME [s]                 =                        0.07                 1.43
 ENERGY DRIFT PER ATOM [K]    =          0.000000000000E+00   0.000000000000E+00
 POTENTIAL ENERGY[hartree]    =          0.000000000000E+00   0.000000000000E+00
 KINETIC ENERGY [hartree]     =          0.000000000000E+00   0.000000000000E+00
 TEMPERATURE [K]              =                       0.000                0.000
 *******************************************************************************

 FOBSH| *** OFF-DIAGONAL GRADIENT CALCULATION
 FOBSH| Put former active state           3 in new active state           3
 FOBSH| ACTIVE STATE =            3

 ENERGY| Total FORCE_EVAL ( MIXED ) energy (a.u.):             0.000000000000000

 FOBSH| CASE1: no hop and no trivial crossing
 ENTER integrator.F
 STEP NUMBER                  =           49
 CPU TIME [s]                 =    7.3349729180335999E-002   1.4010764802711042     

 *******************************************************************************
 ENSEMBLE TYPE                =                                              NVE
 STEP NUMBER                  =                                               49
 TIME [fs]                    =                                         4.900000
 CONSERVED QUANTITY [hartree] =                               0.000000000000E+00

                                              INSTANTANEOUS             AVERAGES
 CPU TIME [s]                 =                        0.07                 1.40
 ENERGY DRIFT PER ATOM [K]    =          0.000000000000E+00   0.000000000000E+00
 POTENTIAL ENERGY[hartree]    =          0.000000000000E+00   0.000000000000E+00
 KINETIC ENERGY [hartree]     =          0.000000000000E+00   0.000000000000E+00
 TEMPERATURE [K]              =                       0.000                0.000
 *******************************************************************************

 FOBSH| *** OFF-DIAGONAL GRADIENT CALCULATION
 FOBSH| Put former active state           3 in new active state           3
 FOBSH| ACTIVE STATE =            3

 ENERGY| Total FORCE_EVAL ( MIXED ) energy (a.u.):             0.000000000000000

 FOBSH| CASE1: no hop and no trivial crossing
 ENTER integrator.F
 STEP NUMBER                  =           50
 CPU TIME [s]                 =    7.3447946924716234E-002   1.3745239096041764     

 *******************************************************************************
 ENSEMBLE TYPE                =                                              NVE
 STEP NUMBER                  =                                               50
 TIME [fs]                    =                                         5.000000
 CONSERVED QUANTITY [hartree] =                               0.000000000000E+00

                                              INSTANTANEOUS             AVERAGES
 CPU TIME [s]                 =                        0.07                 1.37
 ENERGY DRIFT PER ATOM [K]    =          0.000000000000E+00   0.000000000000E+00
 POTENTIAL ENERGY[hartree]    =          0.000000000000E+00   0.000000000000E+00
 KINETIC ENERGY [hartree]     =          0.000000000000E+00   0.000000000000E+00
 TEMPERATURE [K]              =                       0.000                0.000
 *******************************************************************************

 FOBSH| *** OFF-DIAGONAL GRADIENT CALCULATION
 FOBSH| Put former active state           3 in new active state           3
 FOBSH| ACTIVE STATE =            3

 ENERGY| Total FORCE_EVAL ( MIXED ) energy (a.u.):             0.000000000000000

 FOBSH| CASE1: no hop and no trivial crossing
 ENTER integrator.F
 STEP NUMBER                  =           51
 CPU TIME [s]                 =    7.3338608723133802E-002   1.3490104723319989     

 *******************************************************************************
[...]
 CPU TIME [s]                 =    3.9954739157110453E-002  0.41523810296907598     

 *******************************************************************************
 ENSEMBLE TYPE                =                                              NVE
 STEP NUMBER                  =                                              190
 TIME [fs]                    =                                        19.000000
 CONSERVED QUANTITY [hartree] =                               0.000000000000E+00

                                              INSTANTANEOUS             AVERAGES
 CPU TIME [s]                 =                        0.04                 0.42
 ENERGY DRIFT PER ATOM [K]    =          0.000000000000E+00   0.000000000000E+00
 POTENTIAL ENERGY[hartree]    =          0.000000000000E+00   0.000000000000E+00
 KINETIC ENERGY [hartree]     =          0.000000000000E+00   0.000000000000E+00
 TEMPERATURE [K]              =                       0.000                0.000
 *******************************************************************************

 FOBSH| *** OFF-DIAGONAL GRADIENT CALCULATION
 FOBSH| Put former active state           3 in new active state           3
 FOBSH| ACTIVE STATE =            3

 ENERGY| Total FORCE_EVAL ( MIXED ) energy (a.u.):             0.000000000000000

 FOBSH| CASE1: no hop and no trivial crossing
 ENTER integrator.F
 STEP NUMBER                  =          191
 CPU TIME [s]                 =    3.9795863907784224E-002  0.41327243679598025     

 *******************************************************************************
 ENSEMBLE TYPE                =                                              NVE
 STEP NUMBER                  =                                              191
 TIME [fs]                    =                                        19.100000
 CONSERVED QUANTITY [hartree] =                               0.000000000000E+00

                                              INSTANTANEOUS             AVERAGES
 CPU TIME [s]                 =                        0.04                 0.41
 ENERGY DRIFT PER ATOM [K]    =          0.000000000000E+00   0.000000000000E+00
 POTENTIAL ENERGY[hartree]    =          0.000000000000E+00   0.000000000000E+00
 KINETIC ENERGY [hartree]     =          0.000000000000E+00   0.000000000000E+00
 TEMPERATURE [K]              =                       0.000                0.000
 *******************************************************************************

 FOBSH| *** OFF-DIAGONAL GRADIENT CALCULATION
 FOBSH| Put former active state           3 in new active state           3
 FOBSH| ACTIVE STATE =            3

 ENERGY| Total FORCE_EVAL ( MIXED ) energy (a.u.):             0.000000000000000

 FOBSH| CASE1: no hop and no trivial crossing
 ENTER integrator.F
 STEP NUMBER                  =          192
 CPU TIME [s]                 =    3.9661037269979715E-002  0.41132654409011560     

 *******************************************************************************
 ENSEMBLE TYPE                =                                              NVE
 STEP NUMBER                  =                                              192
 TIME [fs]                    =                                        19.200000
 CONSERVED QUANTITY [hartree] =                               0.000000000000E+00

                                              INSTANTANEOUS             AVERAGES
 CPU TIME [s]                 =                        0.04                 0.41
 ENERGY DRIFT PER ATOM [K]    =          0.000000000000E+00   0.000000000000E+00
 POTENTIAL ENERGY[hartree]    =          0.000000000000E+00   0.000000000000E+00
 KINETIC ENERGY [hartree]     =          0.000000000000E+00   0.000000000000E+00
 TEMPERATURE [K]              =                       0.000                0.000
 *******************************************************************************

 FOBSH| *** OFF-DIAGONAL GRADIENT CALCULATION
 FOBSH| Put former active state           3 in new active state           3
 FOBSH| ACTIVE STATE =            3

 ENERGY| Total FORCE_EVAL ( MIXED ) energy (a.u.):             0.000000000000000

 FOBSH| CASE1: no hop and no trivial crossing
 ENTER integrator.F
 STEP NUMBER                  =          193
 CPU TIME [s]                 =    3.9546316955238581E-002  0.40940022166972767     

 *******************************************************************************
 ENSEMBLE TYPE                =                                              NVE
 STEP NUMBER                  =                                              193
 TIME [fs]                    =                                        19.300000
 CONSERVED QUANTITY [hartree] =                               0.000000000000E+00

                                              INSTANTANEOUS             AVERAGES
 CPU TIME [s]                 =                        0.04                 0.41
 ENERGY DRIFT PER ATOM [K]    =          0.000000000000E+00   0.000000000000E+00
 POTENTIAL ENERGY[hartree]    =          0.000000000000E+00   0.000000000000E+00
 KINETIC ENERGY [hartree]     =          0.000000000000E+00   0.000000000000E+00
 TEMPERATURE [K]              =                       0.000                0.000
 *******************************************************************************

 FOBSH| *** OFF-DIAGONAL GRADIENT CALCULATION
 FOBSH| Put former active state           3 in new active state           3
 FOBSH| ACTIVE STATE =            3

 ENERGY| Total FORCE_EVAL ( MIXED ) energy (a.u.):             0.000000000000000

 FOBSH| CASE1: no hop and no trivial crossing
 ENTER integrator.F
 STEP NUMBER                  =          194
 CPU TIME [s]                 =    3.9707927964627743E-002  0.40749459128980448     

 *******************************************************************************
 ENSEMBLE TYPE                =                                              NVE
 STEP NUMBER                  =                                              194
 TIME [fs]                    =                                        19.400000
 CONSERVED QUANTITY [hartree] =                               0.000000000000E+00

                                              INSTANTANEOUS             AVERAGES
 CPU TIME [s]                 =                        0.04                 0.41
 ENERGY DRIFT PER ATOM [K]    =          0.000000000000E+00   0.000000000000E+00
 POTENTIAL ENERGY[hartree]    =          0.000000000000E+00   0.000000000000E+00
 KINETIC ENERGY [hartree]     =          0.000000000000E+00   0.000000000000E+00
 TEMPERATURE [K]              =                       0.000                0.000
 *******************************************************************************

 FOBSH| *** OFF-DIAGONAL GRADIENT CALCULATION
 FOBSH| Put former active state           3 in new active state           3
 FOBSH| ACTIVE STATE =            3

 ENERGY| Total FORCE_EVAL ( MIXED ) energy (a.u.):             0.000000000000000

 FOBSH| CASE1: no hop and no trivial crossing
 ENTER integrator.F
 STEP NUMBER                  =          195
 CPU TIME [s]                 =    3.9860454853624105E-002  0.40560928802602919     

 *******************************************************************************
 ENSEMBLE TYPE                =                                              NVE
 STEP NUMBER                  =                                              195
 TIME [fs]                    =                                        19.500000
 CONSERVED QUANTITY [hartree] =                               0.000000000000E+00

                                              INSTANTANEOUS             AVERAGES
 CPU TIME [s]                 =                        0.04                 0.41
 ENERGY DRIFT PER ATOM [K]    =          0.000000000000E+00   0.000000000000E+00
 POTENTIAL ENERGY[hartree]    =          0.000000000000E+00   0.000000000000E+00
 KINETIC ENERGY [hartree]     =          0.000000000000E+00   0.000000000000E+00
 TEMPERATURE [K]              =                       0.000                0.000
 *******************************************************************************

 FOBSH| *** OFF-DIAGONAL GRADIENT CALCULATION
 FOBSH| Put former active state           3 in new active state           3
 FOBSH| ACTIVE STATE =            3

 ENERGY| Total FORCE_EVAL ( MIXED ) energy (a.u.):             0.000000000000000

 FOBSH| CASE1: no hop and no trivial crossing
 ENTER integrator.F
 STEP NUMBER                  =          196
 CPU TIME [s]                 =    3.9720362983644009E-002  0.40374250779622106     

 *******************************************************************************
 ENSEMBLE TYPE                =                                              NVE
 STEP NUMBER                  =                                              196
 TIME [fs]                    =                                        19.600000
 CONSERVED QUANTITY [hartree] =                               0.000000000000E+00

                                              INSTANTANEOUS             AVERAGES
 CPU TIME [s]                 =                        0.04                 0.40
 ENERGY DRIFT PER ATOM [K]    =          0.000000000000E+00   0.000000000000E+00
 POTENTIAL ENERGY[hartree]    =          0.000000000000E+00   0.000000000000E+00
 KINETIC ENERGY [hartree]     =          0.000000000000E+00   0.000000000000E+00
 TEMPERATURE [K]              =                       0.000                0.000
 *******************************************************************************

 FOBSH| *** OFF-DIAGONAL GRADIENT CALCULATION
 FOBSH| Put former active state           3 in new active state           3
 FOBSH| ACTIVE STATE =            3

 ENERGY| Total FORCE_EVAL ( MIXED ) energy (a.u.):             0.000000000000000

 FOBSH| CASE1: no hop and no trivial crossing
 ENTER integrator.F
 STEP NUMBER                  =          197
 CPU TIME [s]                 =    3.9984229020774364E-002  0.40189601907147254     

 *******************************************************************************
 ENSEMBLE TYPE                =                                              NVE
 STEP NUMBER                  =                                              197
 TIME [fs]                    =                                        19.700000
 CONSERVED QUANTITY [hartree] =                               0.000000000000E+00

                                              INSTANTANEOUS             AVERAGES
 CPU TIME [s]                 =                        0.04                 0.40
 ENERGY DRIFT PER ATOM [K]    =          0.000000000000E+00   0.000000000000E+00
 POTENTIAL ENERGY[hartree]    =          0.000000000000E+00   0.000000000000E+00
 KINETIC ENERGY [hartree]     =          0.000000000000E+00   0.000000000000E+00
 TEMPERATURE [K]              =                       0.000                0.000
 *******************************************************************************

 FOBSH| *** OFF-DIAGONAL GRADIENT CALCULATION
 FOBSH| Put former active state           3 in new active state           3
 FOBSH| ACTIVE STATE =            3

 ENERGY| Total FORCE_EVAL ( MIXED ) energy (a.u.):             0.000000000000000

 FOBSH| CASE1: no hop and no trivial crossing
 ENTER integrator.F
 STEP NUMBER                  =          198
 CPU TIME [s]                 =    3.9607971906661987E-002  0.40006628145952911     

 *******************************************************************************
 ENSEMBLE TYPE                =                                              NVE
 STEP NUMBER                  =                                              198
 TIME [fs]                    =                                        19.800000
 CONSERVED QUANTITY [hartree] =                               0.000000000000E+00

                                              INSTANTANEOUS             AVERAGES
 CPU TIME [s]                 =                        0.04                 0.40
 ENERGY DRIFT PER ATOM [K]    =          0.000000000000E+00   0.000000000000E+00
 POTENTIAL ENERGY[hartree]    =          0.000000000000E+00   0.000000000000E+00
 KINETIC ENERGY [hartree]     =          0.000000000000E+00   0.000000000000E+00
 TEMPERATURE [K]              =                       0.000                0.000
 *******************************************************************************

 FOBSH| *** OFF-DIAGONAL GRADIENT CALCULATION
 FOBSH| Put former active state           3 in new active state           3
 FOBSH| ACTIVE STATE =            3

 ENERGY| Total FORCE_EVAL ( MIXED ) energy (a.u.):             0.000000000000000

 FOBSH| CASE1: no hop and no trivial crossing
 ENTER integrator.F
 STEP NUMBER                  =          199
 CPU TIME [s]                 =    3.9772015064954758E-002  0.39825575750779757     

 *******************************************************************************
 ENSEMBLE TYPE                =                                              NVE
 STEP NUMBER                  =                                              199
 TIME [fs]                    =                                        19.900000
 CONSERVED QUANTITY [hartree] =                               0.000000000000E+00

                                              INSTANTANEOUS             AVERAGES
 CPU TIME [s]                 =                        0.04                 0.40
 ENERGY DRIFT PER ATOM [K]    =          0.000000000000E+00   0.000000000000E+00
 POTENTIAL ENERGY[hartree]    =          0.000000000000E+00   0.000000000000E+00
 KINETIC ENERGY [hartree]     =          0.000000000000E+00   0.000000000000E+00
 TEMPERATURE [K]              =                       0.000                0.000
 *******************************************************************************

 FOBSH| *** OFF-DIAGONAL GRADIENT CALCULATION
 FOBSH| Put former active state           3 in new active state           3
 FOBSH| ACTIVE STATE =            3

 ENERGY| Total FORCE_EVAL ( MIXED ) energy (a.u.):             0.000000000000000

 FOBSH| CASE1: no hop and no trivial crossing
 ENTER integrator.F
 STEP NUMBER                  =          200
 CPU TIME [s]                 =    3.9689633995294571E-002  0.39646292689023505     

 *******************************************************************************
 ENSEMBLE TYPE                =                                              NVE
 STEP NUMBER                  =                                              200
 TIME [fs]                    =                                        20.000000
 CONSERVED QUANTITY [hartree] =                               0.000000000000E+00

                                              INSTANTANEOUS             AVERAGES
 CPU TIME [s]                 =                        0.04                 0.40
 ENERGY DRIFT PER ATOM [K]    =          0.000000000000E+00   0.000000000000E+00
 POTENTIAL ENERGY[hartree]    =          0.000000000000E+00   0.000000000000E+00
 KINETIC ENERGY [hartree]     =          0.000000000000E+00   0.000000000000E+00
 TEMPERATURE [K]              =                       0.000                0.000
 *******************************************************************************


 -------------------------------------------------------------------------------
 -                                                                             -
 -                                DBCSR STATISTICS                             -
 -                                                                             -
 -------------------------------------------------------------------------------
 COUNTER                                    TOTAL       BLAS       SMM       ACC
 flops total                                    0       0.0%      0.0%      0.0%
 flops max/rank                                 0       0.0%      0.0%      0.0%
 matmuls inhomo. stacks                         0       0.0%      0.0%      0.0%
 matmuls total                                  0       0.0%      0.0%      0.0%
 number of processed stacks                     0       0.0%      0.0%      0.0%
 average stack size                                     0.0       0.0       0.0
 marketing flops                     0.000000E+00
 -------------------------------------------------------------------------------

 MEMORY| Estimated peak process memory [MiB]                                 122

 -------------------------------------------------------------------------------
 -                                                                             -
 -                           R E F E R E N C E S                               -
 -                                                                             -
 -------------------------------------------------------------------------------
 
 CP2K version 4.0 (Development Version), the CP2K developers group (2015).
 CP2K is freely available from https://www.cp2k.org/ .

 Borstnik, U; VandeVondele, J; Weber, V; Hutter, J. 
 PARALLEL COMPUTING, 40 (5-6), 47-58 (2014). 
 Sparse matrix multiplication: The distributed block-compressed sparse
 row library.
 http://dx.doi.org/10.1016/j.parco.2014.03.012


 Hutter, J; Iannuzzi, M; Schiffmann, F; VandeVondele, J. 
 WILEY INTERDISCIPLINARY REVIEWS-COMPUTATIONAL MOLECULAR SCIENCE, 4 (1), 15-25 (2014). 
 CP2K: atomistic simulations of condensed matter systems.
 http://dx.doi.org/10.1002/wcms.1159


 Frigo, M; Johnson, SG. 
 PROCEEDINGS OF THE IEEE, 93 (2), 216-231 (2005). 
 The design and implementation of FFTW3.
 http://dx.doi.org/10.1109/JPROC.2004.840301


 -------------------------------------------------------------------------------
 -                                                                             -
 -                                T I M I N G                                  -
 -                                                                             -
 -------------------------------------------------------------------------------
 SUBROUTINE                       CALLS  ASD         SELF TIME        TOTAL TIME
                                MAXIMUM       AVERAGE  MAXIMUM  AVERAGE  MAXIMUM
 CP2K                                 1  1.0    0.036    0.036   88.606   88.606
 qs_mol_dyn_low                       1  2.0   13.172   13.172   79.325   79.325
 parser_read_line               2346106  3.0   20.524   20.524   56.710   56.710
 parser_read_line_low              2509  4.3   36.153   36.153   36.186   36.186
 velocity_verlet                    200  3.0   10.082   10.082   13.849   13.849
 topology_control                     3  4.0    0.005    0.005    8.573    8.573
 connectivity_control                 3  5.0    0.006    0.006    8.310    8.310
 read_topology_psf                  150  6.0    3.747    3.747    8.296    8.296
 fist_create_force_env                2  2.0    0.000    0.000    6.513    6.513
 fist_init                            2  3.0    0.002    0.002    6.513    6.513
 fist_calc_energy_force             402  4.0    0.017    0.017    4.061    4.061
 force_nonbond                      201  5.0    3.210    3.210    3.210    3.210
 mixed_create_force_env               1  2.0    0.000    0.000    2.724    2.724
 mixed_init                           1  3.0    0.000    0.000    2.723    2.723
 -------------------------------------------------------------------------------

 The number of warnings for this run is : 1
 
 -------------------------------------------------------------------------------
  **** **** ******  **  PROGRAM ENDED AT                 2021-01-14 05:48:43.135
 ***** ** ***  *** **   PROGRAM RAN ON                   bulstake.phys.ucl.ac.uk
 **    ****   ******    PROGRAM RAN BY                                 sgiannini
 ***** **    ** ** **   PROGRAM PROCESS ID                                 12728
  **** **  *******  **  PROGRAM STOPPED IN /scratch/sgiannini/FOB-SH-REGTESTS_/3
                                           2-XXXX_code_extension_V2/run-fssh-MTS
                                           1_FROZEN_H
