 # Version information for this restart file 
 # current date 2021-01-14 05:47:43.272
 # current working dir /scratch/sgiannini/FOB-SH-REGTESTS_/32-XXXX_code_extension_V2/run-fssh-3NAP-3ANT-actANT-NFF
 # Program compiled at                              Wed  6 Jan 14:38:30 GMT 2021
 # Program compiled on                                   bulstake.phys.ucl.ac.uk
 # Program compiled for                                                    local
 # Source code revision number                                       git:3649ac3
 &GLOBAL
   BLACS_GRID  SQUARE
   PREFERRED_FFT_LIBRARY  FFTW3
   PRINT_LEVEL  LOW
   PROGRAM_NAME  CP2K
   PROJECT_NAME run
   RUN_TYPE  MD
 &END GLOBAL
 &MOTION
   &MD
     ENSEMBLE  NVE
     STEPS  200
     TIMESTEP     9.9999999999999992E-02
     STEP_START_VAL  200
     TIME_START_VAL     2.0000000000000071E+01
     ECONS_START_VAL     7.2890297499451362E-01
     TEMPERATURE     3.0000000000000000E+02
     &THERMOSTAT
       REGION  GLOBAL
       &NOSE
         LENGTH  3
         YOSHIDA  3
         TIMECON     9.9999999999999989E+02
         MTS  2
       &END NOSE
     &END THERMOSTAT
     &AVERAGES  T
       &RESTART_AVERAGES
         ITIMES_START  1
         AVECPU     1.9005557100754231E-02
         AVEHUGONIOT     0.0000000000000000E+00
         AVETEMP_BARO     0.0000000000000000E+00
         AVEPOT     3.4274813201944726E-01
         AVEKIN     3.8615200930947552E-01
         AVETEMP     3.2911474973472019E+02
         AVEKIN_QM     0.0000000000000000E+00
         AVETEMP_QM     0.0000000000000000E+00
         AVEVOL     1.4576402699474397E+06
         AVECELL_A     1.1338356797313864E+02
         AVECELL_B     1.1338356797313864E+02
         AVECELL_C     1.1338356797313864E+02
         AVEALPHA     9.0000000000000043E+01
         AVEBETA     9.0000000000000043E+01
         AVEGAMMA     9.0000000000000043E+01
         AVE_ECONS    -3.6081435382456523E-03
         AVE_PRESS     0.0000000000000000E+00
         AVE_PXX     0.0000000000000000E+00
       &END RESTART_AVERAGES
     &END AVERAGES
     &PRINT
       &PROGRAM_RUN_INFO  LOW
       &END PROGRAM_RUN_INFO
     &END PRINT
   &END MD
   &CONSTRAINT
     &COLLECTIVE
       COLVAR  1
       INTERMOLECULAR  T
       TARGET     0.0000000000000000E+00
       &RESTRAINT
         K     5.0000000000000001E-03
       &END RESTRAINT
     &END COLLECTIVE
     &COLLECTIVE
       COLVAR  2
       INTERMOLECULAR  T
       TARGET     0.0000000000000000E+00
       &RESTRAINT
         K     5.0000000000000001E-03
       &END RESTRAINT
     &END COLLECTIVE
     &COLLECTIVE
       COLVAR  3
       INTERMOLECULAR  T
       TARGET     0.0000000000000000E+00
       &RESTRAINT
         K     5.0000000000000001E-03
       &END RESTRAINT
     &END COLLECTIVE
     &COLLECTIVE
       COLVAR  4
       INTERMOLECULAR  T
       TARGET     0.0000000000000000E+00
       &RESTRAINT
         K     5.0000000000000001E-03
       &END RESTRAINT
     &END COLLECTIVE
     &COLLECTIVE
       COLVAR  5
       INTERMOLECULAR  T
       TARGET     0.0000000000000000E+00
       &RESTRAINT
         K     5.0000000000000001E-03
       &END RESTRAINT
     &END COLLECTIVE
     &COLLECTIVE
       COLVAR  6
       INTERMOLECULAR  T
       TARGET     0.0000000000000000E+00
       &RESTRAINT
         K     5.0000000000000001E-03
       &END RESTRAINT
     &END COLLECTIVE
     &COLLECTIVE
       COLVAR  7
       INTERMOLECULAR  T
       TARGET     0.0000000000000000E+00
       &RESTRAINT
         K     5.0000000000000001E-03
       &END RESTRAINT
     &END COLLECTIVE
     &COLLECTIVE
       COLVAR  8
       INTERMOLECULAR  T
       TARGET     0.0000000000000000E+00
       &RESTRAINT
         K     5.0000000000000001E-03
       &END RESTRAINT
     &END COLLECTIVE
     &COLLECTIVE
       COLVAR  9
       INTERMOLECULAR  T
       TARGET     0.0000000000000000E+00
       &RESTRAINT
         K     5.0000000000000001E-03
       &END RESTRAINT
     &END COLLECTIVE
     &COLLECTIVE
       COLVAR  10
       INTERMOLECULAR  T
       TARGET     0.0000000000000000E+00
       &RESTRAINT
         K     5.0000000000000001E-03
       &END RESTRAINT
     &END COLLECTIVE
     &COLLECTIVE
       COLVAR  11
       INTERMOLECULAR  T
       TARGET     0.0000000000000000E+00
       &RESTRAINT
         K     5.0000000000000001E-03
       &END RESTRAINT
     &END COLLECTIVE
     &COLLECTIVE
       COLVAR  12
       INTERMOLECULAR  T
       TARGET     0.0000000000000000E+00
       &RESTRAINT
         K     5.0000000000000001E-03
       &END RESTRAINT
     &END COLLECTIVE
     &COLVAR_RESTART
           0.0000000000000000E+00
           0.0000000000000000E+00
           0.0000000000000000E+00
           0.0000000000000000E+00
           0.0000000000000000E+00
           0.0000000000000000E+00
           0.0000000000000000E+00
           0.0000000000000000E+00
           0.0000000000000000E+00
           0.0000000000000000E+00
           0.0000000000000000E+00
           0.0000000000000000E+00
     &END COLVAR_RESTART
   &END CONSTRAINT
   &PRINT
     &TRAJECTORY  LOW
       FORMAT  XMOL
       &EACH
         MD  200
       &END EACH
     &END TRAJECTORY
     &MIXED_ENERGIES  OFF
     &END MIXED_ENERGIES
     &RESTART  ON
       &EACH
         MD  200
       &END EACH
     &END RESTART
     &RESTART_HISTORY  OFF
     &END RESTART_HISTORY
   &END PRINT
 &END MOTION
 &MULTIPLE_FORCE_EVALS
   FORCE_EVAL_ORDER  1..4
   MULTIPLE_SUBSYS  T
 &END MULTIPLE_FORCE_EVALS
 &FORCE_EVAL
   METHOD  MIXED
   &MIXED
     MIXING_TYPE  ADIABATIC
     &ADIABATIC
       METHOD_PROPAGATION FSSH
       PRINT_MORE  T
       INITIALIZATION DIABATIC
       REPRESENTATION DIABATIC_BASIS
       ELECTRONIC_PARTIAL_STEP  5
       FIRST_DIABAT  1
       FIRST_ADIABAT  1
       SEED  641704875
       NUMBER_DIABATIC_STATES  3
       NUMBER_ORBITALS  1
       NUCLEAR_TIMESTEP     9.9999999999999992E-02
       CENTER_OF_MASS  T
       INDEX_ACTIVE_MOLS  4..6
       METHOD_COUPLING FROZEN_COUPLINGS
       &OPTIMIZATION
         DO_SPEEDUP_LJ  F
         DO_SPEEDUP_INTRA  F
         SURF_HOP_CHOICE TRIVIAL_HOP_CORRECT
         RK_PROPAGATION DIABATIC_RK_FAST
         REORDERING_STATES_USING_OVERLAP  T
       &END OPTIMIZATION
       &DECOHERENCE
         DECOHERENCE_CORRECTIONS DAMPING
         DECO_TIME EDC
         SPURIOUS_TRANSFER_CORR  T
         EDC_C     1.0000000000000000E+00
         EDC_E0     0.0000000000000000E+00
         THRESHOLD_TAU_FORCES     9.9999999999999995E-21
         TEMPERATURE_FG_WIDTH     3.0000000000000000E+02
         DECOHERENCE_CRITERION     9.9999999999999995E-07
       &END DECOHERENCE
       &ENERGY_CONSERVATION
         METHOD_RESCALING NACV
         METHOD_ADIABATIC_NACV FAST
         METHOD_REVERSAL ALWAYS
       &END ENERGY_CONSERVATION
       &METHOD_SITE_ENERGIES
         MULTI_STATES  F
       &END METHOD_SITE_ENERGIES
       &FROZEN_COUPLINGS
1   1   0.0
1   2   0.001469972
2   2   0.0
2   3   0.001469972
3   3   0.0
         CONNECTIVITY_FRZ_C  T
         INTERACTION_NUMBER  8
       &END FROZEN_COUPLINGS
       &PRINT
         &COEFFICIENTS  LOW
           &EACH
             MD  1
           &END EACH
         &END COEFFICIENTS
         &POPULATIONS  LOW
           &EACH
             MD  1
           &END EACH
         &END POPULATIONS
         &ADIAB_POPULATIONS  LOW
           &EACH
             MD  1
           &END EACH
         &END ADIAB_POPULATIONS
         &ADIABAT_ENERGIES  SILENT
           &EACH
             MD  1
           &END EACH
         &END ADIABAT_ENERGIES
         &SITE_ENERGIES  SILENT
           &EACH
             MD  1
           &END EACH
         &END SITE_ENERGIES
         &OFF_DIAGONALS  SILENT
           &EACH
             MD  1
           &END EACH
         &END OFF_DIAGONALS
         &HAMILTONIAN  SILENT
           UNIT hartree
           &EACH
             MD  1
           &END EACH
         &END HAMILTONIAN
         &PSEUDO_HAMILTONIAN  SILENT
           UNIT hartree
           &EACH
             MD  1
           &END EACH
         &END PSEUDO_HAMILTONIAN
         &SH_INFO  SILENT
           &EACH
             MD  1
           &END EACH
         &END SH_INFO
       &END PRINT
     &END ADIABATIC
     &PRINT
       &PROGRAM_RUN_INFO  OFF
         &EACH
           MD  200
         &END EACH
       &END PROGRAM_RUN_INFO
     &END PRINT
   &END MIXED
   &SUBSYS
     &CELL
       A     6.0000000000000007E+01    0.0000000000000000E+00    0.0000000000000000E+00
       B     0.0000000000000000E+00    6.0000000000000007E+01    0.0000000000000000E+00
       C     0.0000000000000000E+00    0.0000000000000000E+00    6.0000000000000007E+01
       PERIODIC  XYZ
       MULTIPLE_UNIT_CELL  1 1 1
     &END CELL
     &COORD
CK   -3.3897084185122545E-01    5.2547134033872533E-01    2.6112030687387016E+00
CM   -1.0144101580772307E+00    9.0368941920224422E-01    1.4003988117325521E+00
CT   -4.8127793677809416E-01    4.6521890539396699E-01    1.1930501190256564E-01
CM   -8.9476349198591520E-01    9.9409325259993442E-01   -1.1512495506804239E+00
CK    5.8584522270331785E-01   -4.4284446019801227E-01    2.5352837507517276E+00
HA   -5.7683329978333908E-01    9.3637988502657810E-01    3.5793672700777814E+00
HA   -1.8121078376680895E+00    1.6508798034268630E+00    1.3200322687612875E+00
HA   -1.5411418772156471E+00    1.8516493411919897E+00   -1.1561830472263577E+00
HA    1.1510047957544391E+00   -8.4590696731320125E-01    3.4358155335747145E+00
CT    6.0203308544863054E-01   -5.1716903214296517E-01    1.2460849903342626E-01
CK   -4.1574080721862483E-01    3.6255417848713639E-01   -2.3795887725312710E+00
CM    1.1071323594382256E+00   -1.0095408076434440E+00    1.2742228393248138E+00
CM    1.0935017730446870E+00   -1.0697731653130433E+00   -1.0826926128217049E+00
CK    6.4446393827831294E-01   -5.1274580189650087E-01   -2.3946182228034658E+00
HA   -9.0911628806081324E-01    7.4050275806781363E-01   -3.2970580512422112E+00
HA    1.8493682812759262E+00   -1.8070891877528401E+00    1.1495080170746850E+00
HA    1.9367867541677415E+00   -1.6824224558873615E+00   -1.1288173292748673E+00
HA    1.0330869370000213E+00   -8.3629861115448911E-01   -3.3054586669884758E+00
CT    5.0245667613586988E+00   -8.6926818003731243E-01    2.3437860605544683E+00
CT    5.0537816833753153E+00   -1.5392584169544865E+00    1.1472673216735905E+00
CT    5.0894602388636967E+00   -7.7567695052034757E-01   -3.7984133497534177E-02
CT    4.8944537562116519E+00   -1.3939600657198654E+00   -1.3019848052127758E+00
CT    5.1279961271053782E+00    5.6142753797183931E-01    2.4321114312865193E+00
HA    4.8709826725313023E+00   -1.4236359789345956E+00    3.3122788260611840E+00
HA    4.9121008616484527E+00   -2.5627260380026091E+00    1.0856946586272056E+00
HA    4.5909574901500081E+00   -2.5092194638197278E+00   -1.3086775571032996E+00
HA    5.2791233563360844E+00    1.1783713696078491E+00    3.3172105826679150E+00
CT    5.2904081845684701E+00    6.0141456068757693E-01    4.5399350715475836E-02
CT    5.0119319264675068E+00   -6.0130025572495549E-01   -2.4687029241380918E+00
CT    5.4557911858347756E+00    1.2766314488058108E+00    1.2997901021889418E+00
CT    5.4870490950733206E+00    1.2762402669355417E+00   -1.1250615615398831E+00
CT    5.4481138606774806E+00    7.1034061003685112E-01   -2.3947808519210598E+00
HA    4.8046234438763928E+00   -9.3398786254931720E-01   -3.5018005245705766E+00
HA    5.6633630750364174E+00    2.3830004558751812E+00    1.3256696435058237E+00
HA    5.8916952876107436E+00    2.3187596855301078E+00   -1.0492717652433787E+00
HA    5.5589532252013099E+00    1.3026687797559957E+00   -3.3808912753728553E+00
CT    1.0246720105684870E+01   -8.2320050927639621E-01    2.4403375167517281E+00
CT    1.0499764488685464E+01   -1.4342721942898142E+00    1.1981079708944382E+00
CT    1.0237144246058822E+01   -6.3846906967370620E-01    4.9715537916647831E-02
CT    1.0613319877708154E+01   -1.1695723212430547E+00   -1.2508437300890192E+00
CT    9.5349469836910377E+00    4.0753219818867736E-01    2.4691198960471246E+00
HA    1.0402261534324609E+01   -1.3970284471265453E+00    3.3641873604841446E+00
HA    1.1029412906480800E+01   -2.4169733356509249E+00    1.1843838761782015E+00
HA    1.1085482538221859E+01   -2.1085219045160732E+00   -1.3936603932765894E+00
HA    9.0431819002338703E+00    7.0683935388083463E-01    3.3926658767227829E+00
CT    9.6726403337291469E+00    5.9759088372254798E-01    1.0923290172233009E-01
CT    1.0251811565954018E+01   -5.3206718208557646E-01   -2.4488456883034448E+00
CT    9.2488298800097599E+00    1.1519101986349944E+00    1.2793006160467926E+00
CT    9.3933889342422727E+00    1.2769105011187105E+00   -1.0732266466475067E+00
CT    9.6904146639695110E+00    7.5526751578480100E-01   -2.3516589428789327E+00
HA    1.0217012972501738E+01   -1.1423530714637922E+00   -3.3539047051837549E+00
HA    8.6770094587152062E+00    2.0154021944213851E+00    1.3129315854008881E+00
HA    8.9661524721369172E+00    2.2976108983540100E+00   -9.3013119741499994E-01
HA    9.5745386825498588E+00    1.3968031699687646E+00   -3.2144203932430524E+00
CC    1.5798620241221728E+01   -5.1176665885181694E-01    3.4889662661157161E+00
CB    1.6379737585573476E+01   -7.8621137949955833E-01    2.2598582943257721E+00
CP    1.5726381314662829E+01   -4.3342335494084666E-01    1.0477689060662603E+00
CA    1.6310333522739825E+01   -8.2379393340580875E-01   -1.9853788779736634E-01
CP    1.4403952140358864E+01    1.2826497911090512E-01    1.1140787323563741E+00
CB    1.3850772347208677E+01    3.9561755064110926E-01    2.4023611903878805E+00
CC    1.4539143730613509E+01    4.9161788463450880E-02    3.5783630280118488E+00
H    1.6259259932215613E+01   -9.0711311424630492E-01    4.3959551310881304E+00
H    1.7260009179280750E+01   -1.5126098859855384E+00    2.2420336947091664E+00
H    1.7261457383023551E+01   -1.2713338733722748E+00   -2.6298341775452644E-01
H    1.2918767179913106E+01    9.6736623653856479E-01    2.4349760771292641E+00
H    1.4167545640542361E+01    2.6433234743381651E-01    4.5622104729164130E+00
CP    1.5620886212678078E+01   -5.5068179801468164E-01   -1.4324803067104914E+00
CA    1.3789208245358475E+01    4.7819485272705281E-01   -1.2750905722609535E-01
CP    1.4398849340802405E+01    2.3688859434421417E-01   -1.3808142599726747E+00
CB    1.6115332344590939E+01   -9.2575073955017595E-01   -2.6543669710414703E+00
H    1.2808503507353159E+01    8.7926833461585230E-01   -9.0939842851767594E-02
CB    1.3736342760986872E+01    5.9956461414458428E-01   -2.5795519454792233E+00
CC    1.5391401386639743E+01   -5.6286592430358429E-01   -3.8495451780970287E+00
H    1.7064798733346784E+01   -1.4442964398820333E+00   -2.7313876645866890E+00
CC    1.4205228106446668E+01    1.2019420815562344E-01   -3.8444523055778359E+00
H    1.2689957560602451E+01    9.3725779356559857E-01   -2.4954636318381613E+00
H    1.5780961400632718E+01   -8.8466594430528445E-01   -4.7952952399073130E+00
H    1.3617064998172577E+01    1.9670546439557896E-01   -4.7620698848965377E+00
CA    2.0167005548392051E+01   -5.7971849883923299E-01    3.6453607940249451E+00
CA    2.0661435563035951E+01   -1.2363778670324483E+00    2.4804522239265654E+00
CA    2.0342765806671565E+01   -6.6048422152445796E-01    1.2141913274171499E+00
CA    2.0750224538543105E+01   -1.3431557084028021E+00    5.8549900506828623E-02
CA    1.9601248212287498E+01    5.1053601865587195E-01    1.1134626422252467E+00
CA    1.9305331124820917E+01    1.2464234273747441E+00    2.3114958753299764E+00
CA    1.9520644334523457E+01    6.6452061455581335E-01    3.5942170173117813E+00
H    2.0342412180798924E+01   -1.0436463492814436E+00    4.6660579770440531E+00
H    2.1191678501362823E+01   -2.1981992781347981E+00    2.6051667930984901E+00
H    2.1402740711416769E+01   -2.1903255495669871E+00    8.3822022995979822E-02
H    1.8775871543372951E+01    2.2024396244606472E+00    2.3301156624646273E+00
H    1.9241153478840605E+01    1.1926249885225362E+00    4.4866272129929392E+00
CA    2.0421021802977663E+01   -7.9744522899607928E-01   -1.2101324131191642E+00
CA    1.9467578479974030E+01    1.2091825054085910E+00   -1.2580684383615481E-01
CA    1.9857050663314379E+01    4.9967471325266799E-01   -1.3036249372537281E+00
CA    2.0733278522139290E+01   -1.5206081794936410E+00   -2.4147567791762468E+00
H    1.8893587563259658E+01    2.0903265679410978E+00   -1.5799378997130076E-01
CA    1.9586306458479875E+01    1.1048713977768505E+00   -2.5419410069103119E+00
CA    2.0525194668335629E+01   -8.6068430221213132E-01   -3.6852301730253756E+00
H    2.1163498597076572E+01   -2.5392499418661605E+00   -2.4852940945858881E+00
CA    1.9824288473825746E+01    3.8319079894575242E-01   -3.7104678570181151E+00
H    1.9000688068394272E+01    1.9831102299813939E+00   -2.4440463316770820E+00
H    2.0777240177878266E+01   -1.3205373212933400E+00   -4.6132693221481818E+00
H    1.9664212246528045E+01    8.6338950141208259E-01   -4.6424769604319724E+00
CA    2.5173282274880375E+01   -6.8392300319169330E-01    3.8632027452230666E+00
CA    2.5702875474785841E+01   -1.1282158666057656E+00    2.6518182502634788E+00
CA    2.5277270393065756E+01   -6.9762839741762162E-01    1.3876615092634983E+00
CA    2.5805048550106243E+01   -1.2455699744705919E+00    2.2809467827073829E-01
CA    2.4280514459720838E+01    2.9872697419881455E-01    1.2833532981781839E+00
CA    2.3765615678344766E+01    7.7754132178409185E-01    2.4798615178007983E+00
CA    2.4155853626153771E+01    2.5666435921236530E-01    3.7437005267442962E+00
H    2.5574099048946980E+01   -1.0899607532782183E+00    4.7925442869516663E+00
H    2.6493887268195451E+01   -1.7936228244279318E+00    2.7320319004628657E+00
H    2.6533135140894853E+01   -2.1173998904370719E+00    3.2893492295693993E-01
H    2.2884502245613085E+01    1.4511664670898206E+00    2.5018979291945720E+00
H    2.3784793296482793E+01    6.9133941816704314E-01    4.7113052111310436E+00
CA    2.5362070143509840E+01   -8.0602010702818705E-01   -1.0674833713670231E+00
CA    2.3872599328727190E+01    8.4199015318566284E-01    2.2920251869127745E-02
CA    2.4460877131211411E+01    3.5216464570686634E-01   -1.1627937222395075E+00
CA    2.5852307102481813E+01   -1.3571142366269571E+00   -2.2891004542294775E+00
H    2.3241422244660431E+01    1.7140437759323899E+00   -8.5815682526687656E-02
CA    2.4045471234203134E+01    8.4692576707497336E-01   -2.3981801214655545E+00
CA    2.5425115372456485E+01   -7.4371783261397706E-01   -3.5123492113465939E+00
H    2.6447877959812583E+01   -2.2219561322776369E+00   -2.1707125937898679E+00
CA    2.4524065709437515E+01    3.0048256560482428E-01   -3.5922337553798718E+00
H    2.3466671145979042E+01    1.7073537706919737E+00   -2.4407329183378184E+00
H    2.5830346582812673E+01   -1.0911285903960832E+00   -4.4774390699712896E+00
H    2.4203334714509491E+01    7.1603508549926120E-01   -4.5569744367362874E+00
Ne   -2.8961294290102369E+01   -3.1783287358932125E+02   -1.6937103359095670E+02
Ne   -2.9946113547328667E+02    1.6186052478531224E+02   -5.7618206654376102E+01
Ne   -2.5423325596734171E+02   -2.1640060425274137E+02   -1.6699031120352544E+01
Ne   -3.7238126447412486E+02   -1.0547809027615848E+02   -6.2453348075681554E+01
Ne    2.5586206143659260E+02   -2.4750778317118318E+02   -4.1120130894273970E+01
Ne   -9.2273388845009549E+01    1.7932273659562956E+00   -2.7267247861158648E+02
Ne   -4.3961180334982657E+02    3.2897425472440904E+02   -4.2396409564887205E+02
Ne   -2.8317317865037062E+01   -1.5387162569564958E+02   -1.5980482435058073E+02
Ne    1.7490986592094006E+02    2.8657470987709829E+01    2.9225152721983221E+02
Ne   -1.6294470141786800E+02    1.4263439739027157E+02   -4.5176091766484632E+01
Ne   -4.1312890676081963E+02    6.5426849809091493E+01    2.8138160894247312E+02
Ne   -8.5483759018476917E+00   -2.2964217158864645E+02   -1.4906380556294769E+02
Ne    1.4237646237244351E+02   -5.5200029809484661E+01    2.0922927397569609E+02
Ne    1.0766919345899251E+02   -2.4616307440960983E+02    8.9409330969876535E+01
Ne    4.4849623378399812E+01    1.9008133447315294E+02    1.6653046461195598E+02
Ne   -2.0238948982112831E+02   -9.9697767867268041E+01   -2.6076808846132656E+02
Ne   -1.8698368088340729E+02    2.1644628003477024E+02    1.8927301064710744E+02
Ne    7.9388487313775116E+00    3.0831042618896571E+00   -1.4829503099899409E+02
Ne   -3.3041076194166101E+02   -1.2291162752294154E+02    8.7071899115980145E+00
Ne   -8.8203127092898015E+01   -2.8345485535828676E+01    5.5130647655218006E+01
Ne    3.3777451404076135E+02    2.5527873770816174E+02    2.8068605899750264E+02
Ne    4.7515962013861360E+02    4.5757780259648804E+01    2.7308713763532427E+02
Ne   -3.5355534531908023E+02   -2.0345534756442481E+02   -1.3847375987912221E+02
Ne   -9.6101558047014763E+01    1.7958039732679495E+01    1.3330608642060847E+02
Ne   -3.8887614205822626E+02    2.5302669347614878E+02    3.8748804709926731E+01
Ne   -2.0736627709815252E+02   -2.4167176856695957E+02   -3.4830220914877501E+01
Ne   -1.1350801916118119E+01   -1.3906114383902403E+02    2.5454342886139781E+01
Ne   -2.2072996067892103E+02   -2.4916140652703721E+01    2.0866558569301941E+02
Ne    2.7280583053297056E+02   -1.1072845184230935E+02    9.1694042902251169E+01
Ne    4.6453450435565507E+01   -9.9141209578418582E+01   -2.1713163548319008E+02
Ne   -2.5542008625613167E+02   -3.4869233448214345E+02   -9.2957558026970105E+01
Ne    6.1680214564673683E+01   -3.4915243357321731E+02    1.2830398013991251E+02
Ne   -2.1514957326467629E+02    4.6123633978210833E+01    3.1907243810958272E+02
Ne    4.9257952535997397E+01   -1.6424899068515504E+02   -4.9105522805811393E+02
Ne   -9.5078800825731221E+01   -1.4617038810376517E+01   -1.3922509548751003E+02
Ne   -3.7548151124610666E+02    1.3101213917916547E+02    5.4429441030960038E+02
Ne   -1.3093517963494594E+02   -1.8805824097842651E+02    6.2719261877622723E-01
Ne    2.3283699547763851E+02   -2.7233886549599089E+02   -3.6463643998178907E+02
Ne   -2.4886772301538070E+02   -8.5460243534101039E+01   -1.6200357837983105E+02
Ne    4.6725193805752480E+02    3.4584201733846487E+02    1.1774875262712644E+02
Ne   -2.8119888966471905E+01    5.0669747610039494E+01    1.9803566843892628E+02
Ne   -1.9425772330784457E+02   -7.6171295768963873E+01   -7.1098619198076179E+01
Ne   -1.1810459739233872E+02   -2.7825069900755346E+02   -2.9271797978837685E+02
Ne   -4.4002800306514040E+01   -1.5661319154835041E+02    2.4387641963849160E+02
Ne    4.9743126229353925E+02    2.3537290364263345E+01    1.8975596266921124E+02
Ne   -2.6304793196412282E+02    2.2473674911609859E+02    1.0827097920274329E+02
Ne   -3.9808606017837701E+02   -1.1870083672370919E+02    3.8817859241351994E+02
Ne    4.5901453979056032E+02    4.3806288155772694E+02   -1.6962278493801944E+02
Ne   -6.8718174982024422E+01   -1.9135752253722947E+02    4.3141498563955486E+02
Ne    6.0311137848799626E+02    1.4916724265492013E+02    2.5799038884450874E+02
Ne   -8.5282727590796696E+01   -1.0662684214771431E+02   -3.1004517692970410E+02
Ne    1.3753070738488697E+02    2.4622960035717909E+02   -2.3017220846182735E+02
Ne    1.1529626036912883E+02   -2.1451331041156831E+02    2.3675240203180851E+02
Ne   -6.2508882663256236E+02    4.0812338808632819E+02   -6.0698791785918513E+02
Ne   -3.0352555652757928E+01    5.2682617421594848E+01   -8.2973363212835608E+01
Ne   -1.9764793617481408E+02   -1.8005560193605856E+01   -3.9776211521694313E+02
Ne    9.9980998463581287E+01    8.7918584819766735E+01   -1.3563437083562272E+02
Ne    4.4479492422856502E+01   -2.7314643022816153E+01   -2.7026833370798039E+02
Ne   -3.8833257495838438E+02    1.4237857841644703E+02   -5.4498968100600780E+02
Ne    1.6868134881810934E+02    1.4042578524621308E+02   -9.5217627253871754E+01
Ne    1.3041771969905608E+02   -2.3437326607402355E+02   -1.3011343366066401E+02
Ne    1.3162330595051966E+02    5.1599029340257255E+02    4.3843715212864561E+02
Ne   -8.4196963356756001E+01    8.9511859792804060E+01   -1.3330087649161197E+02
Ne    9.9886810665435021E+01   -2.4576718287676067E+02   -5.2296287891015453E+01
Ne    3.6742534610517004E+02    4.9567456717269216E+01   -4.0726703184622909E+02
Ne   -1.8512712058986452E+02    5.0321137850639005E+01   -1.5532809176352995E+01
Ne    1.6757141319970714E+01   -3.2383828443839758E+02    1.0359590296268555E+01
Ne   -1.4809354370442188E+02   -5.4049024981910485E+01    4.5422052939161262E+01
Ne   -2.1258086368110508E+01    1.1150189485515382E+02   -3.0598303096377344E+02
Ne    2.7469902607955611E+01    1.2206475057218520E+02    4.8213399754418020E+01
Ne    9.0080233673337105E+01   -1.7745577462455071E+02   -7.9309647015813184E+01
Ne   -1.9114481889376080E+02   -1.5678427419038249E+02    3.1523142738454351E+02
Ne   -5.3088739926254118E+02    4.3566055525431250E+02    1.0333915702478969E+02
Ne    3.3849906833097879E+02    2.0788476598595065E+02    4.0833785518296551E+01
Ne   -2.2947003396792536E+02   -2.8869295281241637E+01   -5.0345910407767413E+01
Ne   -1.2346460177536362E+02    5.0415459949966635E+02   -4.0617552033838786E+02
Ne   -9.8322219486513475E+01   -6.4091895910171260E+01   -3.5555812085055756E+01
Ne   -1.6070353153907149E+02   -2.2648032312742365E+02   -3.8892134924857589E+02
Ne   -6.2707491655558535E+01   -1.0994691841915652E+02   -1.9505146974614783E+02
Ne   -2.2358152864928354E+02    1.6636752380436550E+02   -1.1235307420720996E+02
Ne   -1.3226728435975633E+02    4.7373466837522579E+02   -2.3694277198776248E+02
Ne    1.6355796112728598E+02    1.9324155468267952E+02    3.7844649645615425E+02
Ne   -1.5300034528322399E+02    1.5814037133222880E+02    1.4055863011866525E+00
Ne    1.1514791413971279E+01    1.8936448402634198E+02    5.7601633016560743E+02
Ne    2.5449803163249111E+01    3.4090284330514542E+01   -4.9835332516591188E+02
Ne    1.3154527917026516E+02   -4.1150377038204752E+01   -1.6127715746202782E+02
Ne   -2.1672335196145745E+01    2.0270760155326096E+02   -1.1646406809577476E+01
Ne   -5.5820736003966999E+01    1.7136440094853899E+02   -1.7796853027820791E+02
Ne    5.8692165927070072E+01    7.2780127081023835E+01    9.6980845891745687E+01
Ne    1.4791052117101592E+02    1.1681423195790889E+02    5.5112070800744732E+02
Ne    3.6463757220376232E+02    2.4860121629231281E+02   -1.6680808786071759E+02
Ne    1.9880351766373488E+02    9.1718752795487415E+00    9.3833935003093401E+01
Ne   -2.3265539276682478E+02    2.1544109859741769E+02   -3.4894535984637616E+02
Ne   -3.3782620198582322E+01   -2.4710195231301256E+01    3.0694440883645370E+01
Ne   -2.1328625741254638E+02   -2.6110524740723429E+02    1.5886384784896234E+02
Ne    4.9373139609513748E+02   -4.4356921642299568E+01    2.0670663588853100E+02
Ne   -1.7728146459429539E+02    2.2934658998570558E+02   -3.5524404752259488E+02
Ne    5.9160172973011655E+01   -4.5530348521856695E+01   -4.5537021362762596E+02
Ne    2.7409918700022327E+01    2.2598166549486348E+02    2.9850203008490933E+01
Ne   -7.3571452056956034E+01   -5.1282147781916628E+01    2.0369673818355128E+02
Ne   -1.8596612513551150E+02    2.5320966365673087E+02    2.1111032133750294E+02
Ne    2.0116499911029013E+02    9.9368794356050927E+01   -3.6124510853310554E+01
Ne    2.1767520785663217E+02    1.3047586714815472E+02   -1.6411437113370124E+02
Ne   -1.8392425431656989E+02   -1.7224168733253424E+02   -3.2717678959775554E+02
Ne   -2.0547584158649119E+01    1.4507050629278848E+02    1.5634226737802885E+02
Ne   -3.3672258256997577E+02    1.0572757465205036E+02   -1.8867017256607042E+02
Ne    2.7984245222238656E+02    1.0025352163894078E+02   -7.8240493376290857E+01
Ne   -4.3727901610145256E+02   -8.7564858899374798E+00   -6.7852903822603537E+01
Ne    2.3340203685212469E+01    1.9314645108864286E+02   -2.3189613311348913E+02
Ne    6.4919246846696592E+02    8.9605881672455709E+01    1.7098039098256574E+01
Ne    2.5773696700661640E+02    1.1291525035287020E+02   -2.2495901596007457E+01
Ne   -5.0956844188504377E+01   -1.9156301960847591E+02    2.2572445934647573E+02
Ne    5.5632707914402062E+01   -6.9055057574722775E+02   -1.9888067741665301E+02
Ne   -1.7501946640373424E+02    5.7066424059526514E+02   -1.2976749051762414E+02
Ne   -5.0302647871595639E+02   -8.5053819347508494E+01   -3.1133638726629761E+02
Ne   -3.0942689168584980E+01    1.8054586020453860E+02   -1.7884016543055003E+02
Ne   -1.9298694485608576E+02   -5.2639729579685216E+01    2.7830654244710644E+02
Ne   -1.1414006328341478E+02    2.8713283546787653E+02    3.8954619929596070E+01
Ne    2.3025056942659626E+02    7.5326652287703197E+01   -4.5401255698196536E+01
Ne   -2.7239591538577747E+02   -3.2406887452857853E+02   -1.4047156564545216E+02
Ne    1.0198275105430336E+02    1.2073586888747457E+02    3.3015485459342489E+02
Ne   -2.9094400674108118E+02   -1.1351354459734192E+02   -3.1564794219502964E+01
     &END COORD
     &VELOCITY
           2.8523250103169374E-04   -3.7936959923609131E-05    1.3416879779604837E-04
          -2.7337207865816714E-04   -3.6970781756893127E-05   -8.2255663376252047E-05
          -6.9065348053696721E-05    1.0071997997055223E-04   -1.6385003450180159E-04
          -5.1539111991696972E-04   -8.1687233192442955E-05    3.4502833960922956E-04
           1.9105175426262038E-04    8.8882238386416679E-05   -8.6210406379301618E-05
          -1.0213045580990110E-03   -8.1373290043394318E-04   -4.2629226012643828E-04
           1.8458904126174657E-04   -4.8964287555891290E-04   -4.4053306393071874E-04
           8.0865927165727283E-04    6.2721817886863792E-04    5.6985640133541172E-04
           1.5022017882713049E-03   -1.9029611854323577E-03   -7.6971118171660874E-04
          -4.5410776933107907E-04    4.4815922295362399E-04   -2.5177500579687560E-04
           3.5146815049410380E-04   -7.9790103528743812E-05   -1.1636055720850880E-04
          -5.0983466039384228E-04    4.8601465849153316E-04    6.4748547529449593E-05
          -2.4769247499780925E-04   -2.4832188471234150E-04    1.2944216843704644E-04