#     Step Nr.          Time[fs]        Kin.[a.u.]          Temp[K]            Pot.[a.u.]        Cons Qty[a.u.]        UsedTime[s]
         0            0.000000         0.393255336       335.168867385         0.335110268         0.728365604         0.000000000
         1            0.100000         0.393356999       335.255514183         0.335008609         0.728365609         0.075526539
         2            0.200000         0.393497348       335.375132207         0.334868218         0.728365566         0.021301241
         3            0.300000         0.393675761       335.527192084         0.334689716         0.728365477         0.021466658
         4            0.400000         0.393890868       335.710526719         0.334474475         0.728365343         0.021016494
         5            0.500000         0.394140574       335.923349806         0.334224592         0.728365166         0.021562720
         6            0.600000         0.394422091       336.163284164         0.333942858         0.728364949         0.019839583
         7            0.700000         0.394731979       336.427399616         0.333632716         0.728364694         0.021934177
         8            0.800000         0.395066201       336.712255363         0.333298205         0.728364407         0.020927483
         9            0.900000         0.395420183       337.013951464         0.332943907         0.728364090         0.021524982
        10            1.000000         0.395788878       337.328187647         0.332574871         0.728363749         0.019088410
        11            1.100000         0.396166844       337.650325529         0.332196544         0.728363388         0.019964966
        12            1.200000         0.396548320       337.975455311         0.331814692         0.728363013         0.019640336
        13            1.300000         0.396927311       338.298466862         0.331435317         0.728362628         0.019077494
        14            1.400000         0.397297674       338.614124705         0.331064566         0.728362241         0.019710582
        15            1.500000         0.397653208       338.917144051         0.330708647         0.728361855         0.019470609
        16            1.600000         0.397987745       339.202267676         0.330373733         0.728361478         0.019699975
        17            1.700000         0.398295239       339.464342796         0.330065875         0.728361114         0.018043266
        18            1.800000         0.398569856       339.698396407         0.329790913         0.728360769         0.020396270
        19            1.900000         0.398806057       339.899709018         0.329554391         0.728360448         0.019563787
        20            2.000000         0.398998683       340.063882790         0.329361473         0.728360155         0.018998007
        21            2.100000         0.399143027       340.186906783         0.329216868         0.728359896         0.018992177
        22            2.200000         0.399234912       340.265219341         0.329124761         0.728359673         0.019346864
        23            2.300000         0.399270749       340.295762949         0.329088741         0.728359490         0.019986668
        24            2.400000         0.399247599       340.276032312         0.329111753         0.728359352         0.018351274
        25            2.500000         0.399163217       340.204114131         0.329196042         0.728359259         0.020034688
        26            2.600000         0.399016090       340.078719094         0.329343124         0.728359214         0.018708717
        27            2.700000         0.398805468       339.899206889         0.329553750         0.728359218         0.018842850
        28            2.800000         0.398531382       339.665605817         0.329827889         0.728359272         0.017761738
        29            2.900000         0.398194659       339.378618327         0.330164716         0.728359374         0.017882207
        30            3.000000         0.397796910       339.039620047         0.330562616         0.728359526         0.017734493
        31            3.100000         0.397340533       338.650653098         0.331019191         0.728359724         0.017055926
        32            3.200000         0.396828684       338.214407186         0.331531285         0.728359968         0.018871251
        33            3.300000         0.396265244       337.734191232         0.332095011         0.728360255         0.017726343
        34            3.400000         0.395654783       337.213899865         0.332705798         0.728360581         0.018842477
        35            3.500000         0.395002506       336.657968705         0.333358437         0.728360943         0.017286896
        36            3.600000         0.394314192       336.071323300         0.334047145         0.728361337         0.018676658
        37            3.700000         0.393596132       335.459325427         0.334765625         0.728361758         0.017901497
        38            3.800000         0.392855052       334.827707576         0.335507148         0.728362200         0.017960101
        39            3.900000         0.392098033       334.182505437         0.336264624         0.728362657         0.017856739
        40            4.000000         0.391332426       333.529983664         0.337030702         0.728363127         0.017393892
        41            4.100000         0.390565763       332.876562413         0.337797840         0.728363603         0.017818985
        42            4.200000         0.389805673       332.228742803         0.338558405         0.728364079         0.016512284
        43            4.300000         0.389059784       331.593026048         0.339304764         0.728364548         0.017304970
        44            4.400000         0.388335628       330.975833075         0.340029377         0.728365005         0.017708602
        45            4.500000         0.387640555       330.383426783         0.340724891         0.728365446         0.017161801
        46            4.600000         0.386981632       329.821831856         0.341384230         0.728365862         0.018895521
        47            4.700000         0.386365564       329.296760991         0.342000687         0.728366251         0.019409509
        48            4.800000         0.385798600       328.813541534         0.342568005         0.728366605         0.016235041
        49            4.900000         0.385286458       328.377046290         0.343080463         0.728366921         0.016071186
        50            5.000000         0.384834253       327.991634668         0.343532943         0.728367196         0.015988633
        51            5.100000         0.384446426       327.661092663         0.343920997         0.728367423         0.016261808
        52            5.200000         0.384126688       327.388582088         0.344240914         0.728367602         0.015369773
        53            5.300000         0.383877966       327.176598044         0.344489764         0.728367730         0.015520937
        54            5.400000         0.383702365       327.026934346         0.344665439         0.728367803         0.015870446
        55            5.500000         0.383601135       326.940657019         0.344766687         0.728367822         0.016478120
        56            5.600000         0.383574652       326.918085456         0.344793134         0.728367786         0.015476543
        57            5.700000         0.383622402       326.958782429         0.344745291         0.728367693         0.015721513
        58            5.800000         0.383742984       327.061553781         0.344624561         0.728367545         0.016127485
        59            5.900000         0.383934118       327.224455723         0.344433227         0.728367344         0.016148791
        60            6.000000         0.384192663       327.444812141         0.344174428         0.728367091         0.015583205
        61            6.100000         0.384514652       327.719241274         0.343852137         0.728366789         0.015889504
        62            6.200000         0.384895329       328.043689562         0.343471112         0.728366441         0.015951906
        63            6.300000         0.385329200       328.413475017         0.343036850         0.728366050         0.016235677
        64            6.400000         0.385810092       328.823335965         0.342555529         0.728365621         0.015953264
        65            6.500000         0.386331218       329.267487850         0.342033940         0.728365158         0.015385865
        66            6.600000         0.386885253       329.739688001         0.341479415         0.728364667         0.015078012
        67            6.700000         0.387464411       330.233300736         0.340899741         0.728364152         0.014885515
        68            6.800000         0.388060534       330.741372176         0.340303086         0.728363620         0.015355919
        69            6.900000         0.388665183       331.256710812         0.339697893         0.728363076         0.015317502
        70            7.000000         0.389269736       331.771966717         0.339092791         0.728362527         0.015281886
        71            7.100000         0.389865478       332.279713851         0.338496500         0.728361978         0.015016872
        72            7.200000         0.390443707       332.772534729         0.337917729         0.728361436         0.014951766
        73            7.300000         0.390995831       333.243106281         0.337365076         0.728360907         0.015285942
        74            7.400000         0.391513463       333.684280272         0.336846935         0.728360397         0.015271379
        75            7.500000         0.391988516       334.089164915         0.336371396         0.728359912         0.015062080
        76            7.600000         0.392413301       334.451206299         0.335946156         0.728359457         0.015215189
        77            7.700000         0.392780611       334.764262491         0.335578427         0.728359038         0.015118160
        78            7.800000         0.393083808       335.022674931         0.335274850         0.728358658         0.015411418
        79            7.900000         0.393316891       335.221329910         0.335041432         0.728358323         0.015147900
        80            8.000000         0.393474570       335.355718756         0.334883467         0.728358037         0.015140842
        81            8.100000         0.393552329       335.421992544         0.334805473         0.728357803         0.014862276
        82            8.200000         0.393546478       335.417005373         0.334811145         0.728357623         0.015060885
        83            8.300000         0.393454195       335.338353356         0.334903305         0.728357500         0.015282382
        84            8.400000         0.393273565       335.184403167         0.335083869         0.728357434         0.015304567
        85            8.500000         0.393003596       334.954310405         0.335353833         0.728357429         0.015293109
        86            8.600000         0.392644236       334.648030802         0.335713246         0.728357482         0.014950507
        87            8.700000         0.392196379       334.266325303         0.336161215         0.728357594         0.014767762
        88            8.800000         0.391661857       333.810755616         0.336695909         0.728357766         0.015164935
        89            8.900000         0.391043420       333.283665917         0.337314572         0.728357992         0.015014766
        90            9.000000         0.390344708       332.688158205         0.338013564         0.728358272         0.014911858
        91            9.100000         0.389570211       332.028059893         0.338788392         0.728358603         0.015020688
        92            9.200000         0.388725222       331.307881918         0.339633759         0.728358981         0.014954362
        93            9.300000         0.387815782       330.532772035         0.340543621         0.728359403         0.014917687
        94            9.400000         0.386848611       329.708458475         0.341511253         0.728359863         0.015037786
        95            9.500000         0.385831036       328.841186592         0.342529321         0.728360358         0.015137368
        96            9.600000         0.384770911       327.937649309         0.343589968         0.728360880         0.014926259
        97            9.700000         0.383676524       327.004910166         0.344684900         0.728361424         0.014846484
        98            9.800000         0.382556500       326.050321326         0.345805483         0.728361983         0.014967537
        99            9.900000         0.381419702       325.081436494         0.346942849         0.728362551         0.015106419
       100           10.000000         0.380275122       324.105918507         0.348087998         0.728363120         0.015049644
       101           10.100000         0.379131767       323.131444610         0.349231916         0.728363683         0.014733521
       102           10.200000         0.377998550       322.165611239         0.350365682         0.728364232         0.015055782
       103           10.300000         0.376884177       321.215838626         0.351480583         0.728364760         0.014560543
       104           10.400000         0.375797041       320.289279938         0.352568221         0.728365262         0.014487430
       105           10.500000         0.374745123       319.392737448         0.353620607         0.728365730         0.014389987
       106           10.600000         0.373735900       318.532583796         0.354630259         0.728366159         0.014338973
       107           10.700000         0.372776267       317.714694864         0.355590278         0.728366545         0.014201045
       108           10.800000         0.371872464       316.944389713         0.356494422         0.728366886         0.014540217
       109           10.900000         0.371030020       316.226379964         0.357337158         0.728367178         0.014435652
       110           11.000000         0.370253711       315.564737354         0.358113710         0.728367420         0.014419214
       111           11.100000         0.369547535       314.962868804         0.358820076         0.728367612         0.014403678
       112           11.200000         0.368914688       314.423497447         0.359453063         0.728367752         0.014489173
       113           11.300000         0.368401585       313.986183022         0.359966245         0.728367830         0.014542723
       114           11.400000         0.367967664       313.616354699         0.360400199         0.728367863         0.014474997
       115           11.500000         0.367613627       313.314611670         0.360754222         0.728367849         0.014523150
       116           11.600000         0.367339418       313.080905236         0.361028371         0.728367789         0.014460004
       117           11.700000         0.367144228       312.914546156         0.361223456         0.728367684         0.014137675
       118           11.800000         0.367026514       312.814219424         0.361341020         0.728367534         0.014360579
       119           11.900000         0.366984024       312.778005492         0.361383321         0.728367345         0.014387672
       120           12.000000         0.367013835       312.803412930         0.361353283         0.728367118         0.014412312
       121           12.100000         0.367112401       312.887419888         0.361254454         0.728366855         0.014349053
       122           12.200000         0.367275605       313.026517695         0.361090956         0.728366561         0.014274555
       123           12.300000         0.367498821       313.216762954         0.360867419         0.728366239         0.014247136
       124           12.400000         0.367776980       313.453836676         0.360588915         0.728365896         0.014468177
       125           12.500000         0.368104649       313.733106834         0.360260884         0.728365533         0.014540307
       126           12.600000         0.368476102       314.049692938         0.359889058         0.728365159         0.014160848
       127           12.700000         0.368885401       314.398535752         0.359479378         0.728364778         0.014217148
       128           12.800000         0.369326484       314.774467896         0.359037909         0.728364392         0.014266877
       129           12.900000         0.369793241       315.172281926         0.358570769         0.728364010         0.014626763
       130           13.000000         0.370279600       315.586802673         0.358084036         0.728363637         0.014423044
       131           13.100000         0.370779611       316.012958286         0.357583665         0.728363275         0.014494752
       132           13.200000         0.371287522       316.445847882         0.357075409         0.728362932         0.014465628
       133           13.300000         0.371797862       316.880806885         0.356564748         0.728362610         0.014354848
       134           13.400000         0.372305502       317.313464719         0.356056812         0.728362314         0.014588119
       135           13.500000         0.372805723       317.739799800         0.355556325         0.728362048         0.014391080
       136           13.600000         0.373294278       318.156191946         0.355067536         0.728361814         0.014439361
       137           13.700000         0.373767436       318.559461725         0.354594179         0.728361615         0.014370505
       138           13.800000         0.374222029       318.946907905         0.354139426         0.728361454         0.014250521
       139           13.900000         0.374655485       319.316339406         0.353705848         0.728361332         0.014560625
       140           14.000000         0.375065849       319.666090397         0.353295401         0.728361250         0.014338233
       141           14.100000         0.375451803       319.995036325         0.352909405         0.728361208         0.014481161
       142           14.200000         0.375812675       320.302604596         0.352548530         0.728361205         0.014265177
       143           14.300000         0.376148431       320.588767789         0.352212811         0.728361242         0.014256357
       144           14.400000         0.376459670       320.854034064         0.351901648         0.728361317         0.014491113
       145           14.500000         0.376747597       321.099432223         0.351613832         0.728361429         0.014371030
       146           14.600000         0.377014001       321.326486617         0.351347572         0.728361573         0.014306115
       147           14.700000         0.377261212       321.537182824         0.351100538         0.728361750         0.014233779
       148           14.800000         0.377492057       321.733930589         0.350869898         0.728361955         0.035823840
       149           14.900000         0.377709812       321.919522045         0.350652372         0.728362184         0.014249096
       150           15.000000         0.377918143       322.097080664         0.350444290         0.728362433         0.014169076
       151           15.100000         0.378121038       322.270006867         0.350241661         0.728362698         0.014087695
       152           15.200000         0.378322744       322.441919443         0.350040232         0.728362975         0.014041536
       153           15.300000         0.378527691       322.616594373         0.349835567         0.728363258         0.014131600
       154           15.400000         0.378740416       322.797898586         0.349623128         0.728363544         0.014187663
       155           15.500000         0.378965486       322.989724350         0.349398340         0.728363826         0.014145923
       156           15.600000         0.379207421       323.195924175         0.349156680         0.728364101         0.013993457
       157           15.700000         0.379470615       323.420242672         0.348893747         0.728364363         0.013860738
       158           15.800000         0.379759257       323.666250397         0.348605349         0.728364607         0.014081004
       159           15.900000         0.380077257       323.937279783         0.348287572         0.728364829         0.014181749
       160           16.000000         0.380428172       324.236362184         0.347936853         0.728365025         0.014204694
       161           16.100000         0.380815138       324.566169977         0.347550053         0.728365191         0.014083706
       162           16.200000         0.381240805       324.928963633         0.347124517         0.728365322         0.013818366
       163           16.300000         0.381707287       325.326542547         0.346658130         0.728365417         0.013898587
       164           16.400000         0.382216103       325.760203077         0.346149369         0.728365471         0.014176819
       165           16.500000         0.382768140       326.230701151         0.345597344         0.728365485         0.014242253
       166           16.600000         0.383363616       326.738221147         0.345001838         0.728365454         0.014019354
       167           16.700000         0.384002052       327.282355922         0.344363326         0.728365378         0.014018535
       168           16.800000         0.384682261       327.862093332         0.343682996         0.728365257         0.013915513
       169           16.900000         0.385402338       328.475809565         0.342962753         0.728365091         0.014079051
       170           17.000000         0.386159660       329.121270139         0.342205221         0.728364880         0.014093657
       171           17.100000         0.386950901       329.795639605         0.341413727         0.728364627         0.014063752
       172           17.200000         0.387772054       330.495502535         0.340592280         0.728364334         0.014078779
       173           17.300000         0.388618460       331.216889280         0.339745541         0.728364002         0.013914331
       174           17.400000         0.389484854       331.955310690         0.338878781         0.728363635         0.014001952
       175           17.500000         0.390365409       332.705802219         0.337997826         0.728363236         0.014080610
       176           17.600000         0.391253802       333.462973176         0.337109008         0.728362810         0.014089806
       177           17.700000         0.392143273       334.221063024         0.336219089         0.728362361         0.013996183
       178           17.800000         0.393026702       334.974003477         0.335335194         0.728361895         0.013902884
       179           17.900000         0.393896686       335.715485796         0.334464730         0.728361417         0.013807696
       180           18.000000         0.394745628       336.439032943         0.333615303         0.728360931         0.014053356
       181           18.100000         0.395565817       337.138074084         0.332794628         0.728360445         0.014063937
       182           18.200000         0.396349525       337.806023549         0.332010438         0.728359963         0.014019842
       183           18.300000         0.397089099       338.436357189         0.331270394         0.728359492         0.013968587
       184           18.400000         0.397777050       339.022693679         0.330581987         0.728359038         0.013825997
       185           18.500000         0.398406157       339.558877353         0.329952450         0.728358607         0.014032803
       186           18.600000         0.398969555       340.039057454         0.329388650         0.728358205         0.014040432
       187           18.700000         0.399460826       340.457764593         0.328897011         0.728357838         0.014283467
       188           18.800000         0.399874086       340.809983370         0.328483423         0.728357510         0.014045316
       189           18.900000         0.400204067       341.091224008         0.328153159         0.728357226         0.013733889
       190           19.000000         0.400446192       341.297584872         0.327910799         0.728356991         0.013832051
       191           19.100000         0.400596630       341.425802675         0.327760178         0.728356808         0.014019056
       192           19.200000         0.400652356       341.473297277         0.327704321         0.728356677         0.013992026
       193           19.300000         0.400611184       341.438206877         0.327745418         0.728356602         0.014051434
       194           19.400000         0.400471789       341.319400875         0.327884793         0.728356581         0.014014496
       195           19.500000         0.400307782       341.179619469         0.328048723         0.728356506         0.013810242
       196           19.600000         0.400046863       340.957240089         0.328309636         0.728356499         0.014076783
       197           19.700000         0.399689285       340.652478058         0.328667275         0.728356560         0.014020403
       198           19.800000         0.399236323       340.266421507         0.329120363         0.728356685         0.014143255
       199           19.900000         0.398690260       339.801015821         0.329666613         0.728356873         0.013997323
       200           20.000000         0.398054352       339.259035656         0.330302770         0.728357122         0.013837459
