     248
 i =        0, time =        0.000, E =         0.3567896292
  C        -0.6390835630        0.0498403613        2.6034087070
  C        -1.2112059803        0.4430652681        1.3778926831
  C        -0.5380776584        0.2558131092        0.1348233463
  C        -1.1076540344        0.5320504362       -1.1165698714
  C         0.6575786929       -0.4289394360        2.5906939901
  H        -1.2257717999        0.2251368617        3.5736967196
  H        -2.2775522336        0.7520577680        1.2692066210
  H        -2.0005270088        1.0974757486       -1.0985137441
  H         1.1318424658       -0.7079854454        3.6521060524
  C         0.7489515559       -0.3660887364        0.0590137110
  C        -0.4603541424        0.2108959182       -2.3478222347
  C         1.2976561375       -0.7634778577        1.3204919626
  C         1.4763568515       -0.6288859343       -1.0766294761
  C         0.7435963513       -0.3847626729       -2.2971319272
  H        -0.7812000897        0.5317959627       -3.3056081169
  H         2.2940649564       -1.1473457364        1.3216346630
  H         2.5446653842       -0.9264226417       -1.0726546367
  H         1.2162573146       -0.6878501462       -3.2513903641
  C         5.6670801443       -0.4102847646        2.5725575626
  C         6.3104160826       -0.9002846609        1.4256560405
  C         5.8865321230       -0.4855898616        0.0979349690
  C         6.3635669411       -1.1180065865       -1.1081494302
  C         4.6488947468        0.5291840712        2.5141635757
  H         6.0863628224       -0.6527278302        3.5189051132
  H         6.9995619862       -1.7484781060        1.3720436600
  H         7.1445873259       -1.8631304162       -1.0864319931
  H         4.1381549011        0.9011207793        3.3824556277
  C         4.8214077784        0.4640408375        0.0643963031
  C         5.9066127050       -0.6489555589       -2.3575322208
  C         4.2751164907        0.9177086108        1.2623390353
  C         4.5571489986        1.1113955776       -1.2368424708
  C         5.0364760023        0.4551923756       -2.4269376843
  H         6.2783255498       -0.8701160724       -3.3625578843
  H         3.6959920224        1.8360800614        1.1906386574
  H         3.8272766319        1.9016288924       -1.3210039946
  H         4.6522842731        0.9617187935       -3.3326070530
  C         9.9677565646       -0.6198066790        2.5651492688
  C        10.5744168747       -1.1506053261        1.3734958314
  C        10.2957024245       -0.6170423384        0.0458484532
  C        10.7806127230       -1.2185345414       -1.1206673714
  C         9.3876774511        0.6294268296        2.4777351176
  H         9.9562724957       -1.0860299556        3.5608892144
  H        11.0998734509       -2.1500610020        1.4786737265
  H        11.3294119110       -2.1805588758       -0.9460532893
  H         8.9670089372        1.1000714530        3.3765463404
  C         9.6389321840        0.5909087345       -0.0240987515
  C        10.5907782874       -0.5537070144       -2.3061254190
  C         9.1169843129        1.2058506427        1.2131310096
  C         9.2390474164        1.2224833396       -1.2297510985
  C         9.8155374253        0.6286775026       -2.3734752834
  H        11.1844040468       -0.8698134211       -3.1725865766
  H         8.6469584960        2.2021463207        1.1573290502
  H         8.6858810640        2.1933022899       -1.2887995976
  H         9.5188938350        0.9983283742       -3.3182760930
  C        15.6280989393       -0.7651398979        3.6447703859
  C        16.0266465448       -1.3634977487        2.4156841254
  C        15.5020306780       -0.8534751016        1.2265411116
  C        15.9881201184       -1.3096170528        0.0365680263
  C        14.4706948500        0.1254653133        1.2154068140
  C        14.0180158772        0.6169936095        2.4260885323
  C        14.5851467062        0.1234267226        3.6761492700
  H        16.1635909051       -1.0408352187        4.5504339066
  H        16.7122565730       -2.2341919544        2.3589550632
  H        16.7879806180       -1.9339099605       -0.0072666728
  H        13.3457832452        1.5251744349        2.4754756510
  H        14.2585895071        0.4872019231        4.6398678513
  C        15.5902515519       -0.7920221477       -1.1916320624
  C        13.9907882926        0.6479551619       -0.0215242649
  C        14.5526868572        0.1867163718       -1.2331982955
  C        16.1752610934       -1.2171054905       -2.3822160436
  H        13.2058525026        1.4312013548        0.0186660453
  C        14.1292435861        0.6554016909       -2.5039669764
  C        15.7147369409       -0.7161496993       -3.6264181333
  H        17.1016056420       -1.7475049203       -2.3434535975
  C        14.6573894782        0.1875056849       -3.7367383229
  H        13.1918863558        1.2476537402       -2.5314043386
  H        16.3538231657       -0.7771884645       -4.4728276520
  H        14.3698826114        0.5987869894       -4.7542758760
  C        20.6538516211       -0.9517502952        3.5481545060
  C        21.0953026455       -1.4606758585        2.3107692756
  C        20.5631634129       -0.8567779737        1.1416183846
  C        20.9525775417       -1.2104677135       -0.1768126646
  C        19.6054792641        0.1835696995        1.3090353265
  C        19.2054449376        0.6946529708        2.5263421984
  C        19.6574922079        0.0195934934        3.7024012266
  H        21.1418230765       -1.2952009762        4.5037789229
  H        21.8168688702       -2.2811242912        2.2742350720
  H        21.6756912929       -2.0426875872       -0.2516623633
  H        18.4506203644        1.4575489639        2.5930561261
  H        19.3693164095        0.4739232006        4.6628208925
  C        20.4605175790       -0.5363406140       -1.3170631901
  C        19.0895122130        0.9038463841        0.1270364395
  C        19.4684297892        0.4802134033       -1.1415519674
  C        20.8922374680       -0.8810352242       -2.6451368156
  H        18.4189498192        1.7809306870        0.1215168590
  C        18.9337290049        1.1647453616       -2.2711462458
  C        20.2040035715       -0.2959180104       -3.8125640861
  H        21.6043252860       -1.6748166993       -2.8457460975
  C        19.3256081350        0.7294502909       -3.5776628638
  H        18.1671414873        1.8639090687       -2.1456951188
  H        20.4886301594       -0.7239587460       -4.7547847045
  H        18.9157439036        1.3595429852       -4.3863638954
  C        25.4063570672       -0.5621556418        3.7793661755
  C        26.0204944753       -1.0473682958        2.5810388231
  C        25.4574286664       -0.5834134084        1.3484808000
  C        26.1102395326       -0.9603188593        0.1439428329
  C        24.3303144396        0.2380528028        1.3106621545
  C        23.7141726038        0.7292224592        2.5110615687
  C        24.2341586194        0.2986588196        3.7506516969
  H        25.7284898536       -0.7620673755        4.8235542293
  H        26.8746773341       -1.6566203737        2.5753022715
  H        27.0637534862       -1.5027352118        0.0971354572
  H        22.7405382587        1.3144994549        2.5085182059
  H        23.9148598261        0.6570800424        4.7648878803
  C        25.5875690203       -0.5291838471       -1.1071051982
  C        23.8336657721        0.7042292437        0.0870207962
  C        24.4418421483        0.2508195216       -1.1236030241
  C        26.2022255948       -0.8413495639       -2.3065744642
  H        22.9607933360        1.3372875239        0.0000577167
  C        23.9090541449        0.6492552392       -2.3496554421
  C        25.7057234540       -0.4048749108       -3.5222037429
  H        27.0873019699       -1.4265038663       -2.3699753240
  C        24.5488333781        0.3593097280       -3.5195479444
  H        23.0479499406        1.2822848732       -2.2257747795
  H        26.0931041270       -0.7814592955       -4.4804852688
  H        24.2844778423        0.8401226017       -4.4632798105
 Ne       -30.4882460145     -318.9135025975     -169.6572629022
 Ne      -300.2834702254      163.4394893225      -56.6184582126
 Ne      -255.4478333004     -216.9587704269      -16.8222240324
 Ne      -371.8697526710     -106.9316286516      -66.4316879090
 Ne       255.7970493581     -246.3616165015      -41.3324389847
 Ne       -90.1299097465        1.6717161766     -277.3969511394
 Ne      -438.1620928466      328.4029042361     -423.0476648716
 Ne       -30.3272641936     -154.0349792053     -157.0464959482
 Ne       175.5553831231       27.7430697918      290.8798126764
 Ne      -161.7381438164      142.4072134336      -45.2448613096
 Ne      -413.4272807193       64.3617155262      279.9708817281
 Ne        -9.2362672222     -232.2688158869     -151.0972033938
 Ne       144.2091841827      -55.9793898365      206.3496510350
 Ne       107.9121471934     -247.0639696593       89.4955819970
 Ne        47.0823875076      189.1316804715      167.5667527299
 Ne      -202.7369245252     -100.4201902545     -262.2795908572
 Ne      -183.5504353548      217.7780433158      189.9009770436
 Ne        10.1607882512        3.7984148148     -148.4701513590
 Ne      -331.2169099892     -122.2967864479        7.2484360465
 Ne       -87.4892596651      -29.7886376033       55.6965339626
 Ne       339.4902788071      254.6279720162      279.0643913364
 Ne       475.5152996274       46.6479464545      271.5095704007
 Ne      -353.9810740195     -201.8813608975     -141.5704774551
 Ne       -97.5626439572       20.2434228865      132.9103440735
 Ne      -390.5020945140      253.6558589243       39.9144541170
 Ne      -208.3639556467     -241.4587665418      -31.8936580918
 Ne        -9.7758597314     -139.9273281361       22.5631532779
 Ne      -220.9976732818      -22.2347676084      210.3391869540
 Ne       272.4092315593     -111.7719025939       92.6859441097
 Ne        46.5836636628      -96.7524269060     -218.3873198533
 Ne      -254.2534559753     -349.3710169247      -93.5053958289
 Ne        60.4209452963     -351.0446518453      125.4789448496
 Ne      -216.4953183950       46.2979626818      321.2093014468
 Ne        47.9132959363     -164.1290207795     -491.8922673762
 Ne       -94.0926290610      -12.7344213341     -140.3116275691
 Ne      -375.6920439100      131.1267274219      546.1494865066
 Ne      -129.0752828226     -184.7906679016        0.6323866596
 Ne       234.4487129835     -274.7713197151     -366.3016813166
 Ne      -251.0555195033      -84.1784605571     -161.2021155731
 Ne       465.4215342508      344.5859016496      119.3056191907
 Ne       -27.5617231288       50.1169607795      197.9305985813
 Ne      -195.0038016463      -76.2824550049      -69.0633294914
 Ne      -119.5936095835     -279.7616159066     -292.8173251831
 Ne       -45.4294576615     -157.7944726033      244.5326112296
 Ne       494.9534550184       22.4358655759      190.0704083259
 Ne      -263.6939730706      223.5075811107      109.5252951301
 Ne      -400.3354493876     -119.6027954298      385.8944698061
 Ne       460.9738033439      436.2781863568     -168.4616410441
 Ne       -67.1967977766     -192.2026559815      429.7583982300
 Ne       604.2149748309      151.0359076472      258.6462040727
 Ne       -86.6745684334     -106.0372807149     -307.9417711427
 Ne       138.3980440801      244.8425173803     -230.4748643058
 Ne       112.3817565347     -213.2959164693      237.6206813276
 Ne      -628.0770006668      410.6449529558     -605.2047786534
 Ne       -30.9827307030       52.8667394874      -83.7014734143
 Ne      -196.7772975414      -18.8562979016     -396.3846550438
 Ne       100.8431160947       88.4140839945     -134.9385911639
 Ne        46.7390015189      -27.3499693904     -268.6444479132
 Ne      -386.5372656997      142.3451607032     -545.9678918276
 Ne       167.4825338672      141.9476883655      -94.8071724504
 Ne       131.7805591008     -235.5662594169     -130.5396187633
 Ne       133.2246915540      516.8604968792      438.9791957701
 Ne       -86.8088745691       88.0531211249     -132.0544288630
 Ne        97.1974127428     -245.9686536953      -52.4225276337
 Ne       366.4701355274       47.1698222428     -404.0142964425
 Ne      -184.5663881401       51.2422142999      -16.7588460805
 Ne        18.7973637192     -325.7217226497        9.8387532351
 Ne      -149.2567721396      -55.1400271675       47.9304811265
 Ne       -21.4969057672      111.9349592652     -306.6742986035
 Ne        25.8855195848      125.9262404165       50.3906740455
 Ne        88.6176224454     -177.7675275769      -77.6212443555
 Ne      -191.1848789439     -156.8137416813      315.4017269091
 Ne      -531.2478636766      434.8183864849      103.4393089899
 Ne       338.4508162935      209.6935199602       43.5753509279
 Ne      -228.9657634151      -28.0717497148      -52.2809488952
 Ne      -123.2773164881      505.9833635014     -407.3457727619
 Ne       -98.6126181582      -63.4377340150      -32.7804393619
 Ne      -159.3668437881     -222.8309008753     -392.3754232774
 Ne       -62.3439876079     -105.9786631890     -193.9995426123
 Ne      -223.5062772447      161.1103611947     -109.7040268755
 Ne      -131.5706793978      473.6649029259     -234.2707823174
 Ne       165.0722960313      192.5349795165      380.5760698647
 Ne      -152.8247600316      158.5756828802       -0.0767356025
 Ne        12.6687715471      188.2146579270      574.9719895473
 Ne        22.5176599883       33.8871871305     -499.2626771360
 Ne       130.3311731070      -38.0606082908     -161.3558212102
 Ne       -23.8299519681      202.3598015019      -15.3159115526
 Ne       -54.7455589709      168.8005124932     -181.4706890203
 Ne        59.3223641922       71.9328472023       99.7437536178
 Ne       147.3071711403      114.5824314030      554.6859534549
 Ne       363.1636684182      249.2767754583     -165.9744238647
 Ne       197.6991388108        9.7609895555       93.1609476616
 Ne      -232.8390339673      216.2986492059     -349.8946058124
 Ne       -36.7499257574      -24.5188894682       32.3262490204
 Ne      -213.3397434152     -261.7757535205      160.9191269037
 Ne       495.0949142492      -43.2023495503      208.0096952419
 Ne      -178.3471503357      230.9255335110     -354.5714528806
 Ne        59.2850640553      -44.9048633962     -459.4186218571
 Ne        26.0524386129      227.4712567213       28.5645968946
 Ne       -74.2822536587      -49.5726853243      203.5029416882
 Ne      -186.9770931783      252.5188490519      209.0978451707
 Ne       201.7148800435       98.5801397049      -36.8407075025
 Ne       215.3721552156      129.8403010461     -166.1392053016
 Ne      -182.6759786872     -172.2912903555     -328.4444972420
 Ne       -21.5237873367      145.3338535955      157.8366751067
 Ne      -338.0091160292      109.0358400447     -189.2220118338
 Ne       280.8353431708      101.2977296309      -79.1152354977
 Ne      -438.6032576991      -11.2872140178      -68.2072392368
 Ne        21.1935990627      194.2567287891     -232.0378412356
 Ne       651.1579538553       90.5945963368       19.0652761446
 Ne       260.5003574165      112.6277620620      -23.3683619605
 Ne       -53.0319184462     -192.2116342968      227.9829712622
 Ne        57.7515796960     -689.9739378666     -198.4546170314
 Ne      -173.0201292598      572.5198113872     -129.7207269111
 Ne      -503.0859070185      -83.9021639815     -310.5624110425
 Ne       -30.1302789550      180.5706088517     -180.1271046507
 Ne      -194.1810572728      -52.6066623030      275.4583972753
 Ne      -115.8602595572      289.7628021095       38.3865283762
 Ne       229.9874070141       77.5172285260      -44.8700497905
 Ne      -273.6448961541     -325.3203870460     -138.6350032425
 Ne       102.6432483571      119.7114560044      330.5866524416
 Ne      -293.9673681268     -112.9685773655      -32.3878286992
