 # Version information for this restart file 
 # current date 2021-01-14 05:48:12.769
 # current working dir /scratch/sgiannini/FOB-SH-REGTESTS_/32-XXXX_code_extension_V2/run-fssh-3+3-NAP-ANT-FRZ-COUP
 # Program compiled at                              Wed  6 Jan 14:38:30 GMT 2021
 # Program compiled on                                   bulstake.phys.ucl.ac.uk
 # Program compiled for                                                    local
 # Source code revision number                                       git:3649ac3
 &GLOBAL
   BLACS_GRID  SQUARE
   PREFERRED_FFT_LIBRARY  FFTW3
   PRINT_LEVEL  LOW
   PROGRAM_NAME  CP2K
   PROJECT_NAME run
   RUN_TYPE  MD
 &END GLOBAL
 &MOTION
   &MD
     ENSEMBLE  NVE
     STEPS  100
     TIMESTEP     9.9999999999999992E-02
     STEP_START_VAL  100
     TIME_START_VAL     9.9999999999999840E+00
     ECONS_START_VAL     7.1645001942825504E-01
     TEMPERATURE     3.0000000000000000E+02
     &THERMOSTAT
       REGION  GLOBAL
       &NOSE
         LENGTH  3
         YOSHIDA  3
         TIMECON     9.9999999999999989E+02
         MTS  2
       &END NOSE
     &END THERMOSTAT
     &AVERAGES  T
       &RESTART_AVERAGES
         ITIMES_START  1
         AVECPU     2.5905395112931724E-02
         AVEHUGONIOT     0.0000000000000000E+00
         AVETEMP_BARO     0.0000000000000000E+00
         AVEPOT     3.4763092976513454E-01
         AVEKIN     3.6882472695043705E-01
         AVETEMP     3.1434682399642031E+02
         AVEKIN_QM     0.0000000000000000E+00
         AVETEMP_QM     0.0000000000000000E+00
         AVEVOL     1.4576402699474397E+06
         AVECELL_A     1.1338356797313861E+02
         AVECELL_B     1.1338356797313861E+02
         AVECELL_C     1.1338356797313861E+02
         AVEALPHA     8.9999999999999972E+01
         AVEBETA     8.9999999999999972E+01
         AVEGAMMA     8.9999999999999972E+01
         AVE_ECONS     7.1758901433373965E-03
         AVE_PRESS     0.0000000000000000E+00
         AVE_PXX     0.0000000000000000E+00
       &END RESTART_AVERAGES
     &END AVERAGES
     &PRINT
       &PROGRAM_RUN_INFO  LOW
       &END PROGRAM_RUN_INFO
     &END PRINT
   &END MD
   &CONSTRAINT
     &COLLECTIVE
       COLVAR  1
       INTERMOLECULAR  T
       TARGET     0.0000000000000000E+00
       &RESTRAINT
         K     5.0000000000000001E-03
       &END RESTRAINT
     &END COLLECTIVE
     &COLLECTIVE
       COLVAR  2
       INTERMOLECULAR  T
       TARGET     0.0000000000000000E+00
       &RESTRAINT
         K     5.0000000000000001E-03
       &END RESTRAINT
     &END COLLECTIVE
     &COLLECTIVE
       COLVAR  3
       INTERMOLECULAR  T
       TARGET     0.0000000000000000E+00
       &RESTRAINT
         K     5.0000000000000001E-03
       &END RESTRAINT
     &END COLLECTIVE
     &COLLECTIVE
       COLVAR  4
       INTERMOLECULAR  T
       TARGET     0.0000000000000000E+00
       &RESTRAINT
         K     5.0000000000000001E-03
       &END RESTRAINT
     &END COLLECTIVE
     &COLLECTIVE
       COLVAR  5
       INTERMOLECULAR  T
       TARGET     0.0000000000000000E+00
       &RESTRAINT
         K     5.0000000000000001E-03
       &END RESTRAINT
     &END COLLECTIVE
     &COLLECTIVE
       COLVAR  6
       INTERMOLECULAR  T
       TARGET     0.0000000000000000E+00
       &RESTRAINT
         K     5.0000000000000001E-03
       &END RESTRAINT
     &END COLLECTIVE
     &COLLECTIVE
       COLVAR  7
       INTERMOLECULAR  T
       TARGET     0.0000000000000000E+00
       &RESTRAINT
         K     5.0000000000000001E-03
       &END RESTRAINT
     &END COLLECTIVE
     &COLLECTIVE
       COLVAR  8
       INTERMOLECULAR  T
       TARGET     0.0000000000000000E+00
       &RESTRAINT
         K     5.0000000000000001E-03
       &END RESTRAINT
     &END COLLECTIVE
     &COLLECTIVE
       COLVAR  9
       INTERMOLECULAR  T
       TARGET     0.0000000000000000E+00
       &RESTRAINT
         K     5.0000000000000001E-03
       &END RESTRAINT
     &END COLLECTIVE
     &COLLECTIVE
       COLVAR  10
       INTERMOLECULAR  T
       TARGET     0.0000000000000000E+00
       &RESTRAINT
         K     5.0000000000000001E-03
       &END RESTRAINT
     &END COLLECTIVE
     &COLLECTIVE
       COLVAR  11
       INTERMOLECULAR  T
       TARGET     0.0000000000000000E+00
       &RESTRAINT
         K     5.0000000000000001E-03
       &END RESTRAINT
     &END COLLECTIVE
     &COLLECTIVE
       COLVAR  12
       INTERMOLECULAR  T
       TARGET     0.0000000000000000E+00
       &RESTRAINT
         K     5.0000000000000001E-03
       &END RESTRAINT
     &END COLLECTIVE
     &COLVAR_RESTART
           0.0000000000000000E+00
           0.0000000000000000E+00
           0.0000000000000000E+00
           0.0000000000000000E+00
           0.0000000000000000E+00
           0.0000000000000000E+00
           0.0000000000000000E+00
           0.0000000000000000E+00
           0.0000000000000000E+00
           0.0000000000000000E+00
           0.0000000000000000E+00
           0.0000000000000000E+00
     &END COLVAR_RESTART
   &END CONSTRAINT
   &PRINT
     &TRAJECTORY  LOW
       FORMAT  XMOL
       &EACH
         MD  200
       &END EACH
     &END TRAJECTORY
     &MIXED_ENERGIES  OFF
     &END MIXED_ENERGIES
     &RESTART  ON
       &EACH
         MD  200
       &END EACH
     &END RESTART
     &RESTART_HISTORY  OFF
     &END RESTART_HISTORY
   &END PRINT
 &END MOTION
 &MULTIPLE_FORCE_EVALS
   FORCE_EVAL_ORDER  1..10
   MULTIPLE_SUBSYS  T
 &END MULTIPLE_FORCE_EVALS
 &FORCE_EVAL
   METHOD  MIXED
   &MIXED
     MIXING_TYPE  ADIABATIC
     &ADIABATIC
       METHOD_PROPAGATION FSSH
       PRINT_MORE  T
       INITIALIZATION DIABATIC
       REPRESENTATION DIABATIC_BASIS
       ELECTRONIC_PARTIAL_STEP  5
       FIRST_DIABAT  1
       FIRST_ADIABAT  1
       SEED  710946367
       NUMBER_DIABATIC_STATES  9
       NUMBER_ORBITALS  1
       NUCLEAR_TIMESTEP     9.9999999999999992E-02
       CENTER_OF_MASS  T
       INDEX_ACTIVE_MOLS  1..6
       METHOD_COUPLING FROZEN_COUPLINGS
       &OPTIMIZATION
         DO_SPEEDUP_LJ  F
         DO_SPEEDUP_INTRA  F
         SURF_HOP_CHOICE TRIVIAL_HOP_CORRECT
         RK_PROPAGATION DIABATIC_RK_FAST
         REORDERING_STATES_USING_OVERLAP  T
       &END OPTIMIZATION
       &DECOHERENCE
         DECOHERENCE_CORRECTIONS DAMPING
         DECO_TIME EDC
         SPURIOUS_TRANSFER_CORR  T
         EDC_C     1.0000000000000000E+00
         EDC_E0     0.0000000000000000E+00
         THRESHOLD_TAU_FORCES     9.9999999999999995E-21
         TEMPERATURE_FG_WIDTH     3.0000000000000000E+02
         DECOHERENCE_CRITERION     9.9999999999999995E-07
       &END DECOHERENCE
       &ENERGY_CONSERVATION
         METHOD_RESCALING SIMPLE
         METHOD_ADIABATIC_NACV FAST
         METHOD_REVERSAL ALWAYS
       &END ENERGY_CONSERVATION
       &METHOD_SITE_ENERGIES
         MULTI_STATES  T
       &END METHOD_SITE_ENERGIES
       &FROZEN_COUPLINGS
1   1   0.0
1   2   0.001469972
1   4   0.000734986
2   2   0.0
2   3   0.001469972
2   5   0.000734986
3   3   0.0
3   6   0.000734986
4   4   0.0
4   5   0.001469972
4   7   0.000734986
5   5   0.0
5   6   0.001469972
5   8   0.000734986
6   6   0.0
6   9   0.000734986
7   7   0.0
7   8   0.001469972
8   8   0.0
8   9   0.001469972
9   9   0.0
         CONNECTIVITY_FRZ_C  T
         INTERACTION_NUMBER  21
       &END FROZEN_COUPLINGS
       &PRINT
         &COEFFICIENTS  LOW
           &EACH
             MD  1
           &END EACH
         &END COEFFICIENTS
         &POPULATIONS  LOW
           &EACH
             MD  1
           &END EACH
         &END POPULATIONS
         &ADIAB_POPULATIONS  LOW
           &EACH
             MD  1
           &END EACH
         &END ADIAB_POPULATIONS
         &ADIABAT_ENERGIES  SILENT
           &EACH
             MD  1
           &END EACH
         &END ADIABAT_ENERGIES
         &SITE_ENERGIES  SILENT
           &EACH
             MD  1
           &END EACH
         &END SITE_ENERGIES
         &OFF_DIAGONALS  SILENT
           &EACH
             MD  1
           &END EACH
         &END OFF_DIAGONALS
         &HAMILTONIAN  SILENT
           UNIT hartree
           &EACH
             MD  1
           &END EACH
         &END HAMILTONIAN
         &PSEUDO_HAMILTONIAN  SILENT
           UNIT hartree
           &EACH
             MD  1
           &END EACH
         &END PSEUDO_HAMILTONIAN
         &SH_INFO  SILENT
           &EACH
             MD  1
           &END EACH
         &END SH_INFO
       &END PRINT
     &END ADIABATIC
     &PRINT
       &PROGRAM_RUN_INFO  OFF
         &EACH
           MD  200
         &END EACH
       &END PROGRAM_RUN_INFO
     &END PRINT
   &END MIXED
   &SUBSYS
     &CELL
       A     6.0000000000000007E+01    0.0000000000000000E+00    0.0000000000000000E+00
       B     0.0000000000000000E+00    6.0000000000000007E+01    0.0000000000000000E+00
       C     0.0000000000000000E+00    0.0000000000000000E+00    6.0000000000000007E+01
       PERIODIC  XYZ
       MULTIPLE_UNIT_CELL  1 1 1
     &END CELL
     &COORD
CK   -6.5416389344274406E-01    6.5628099969415613E-02    2.6411572835466552E+00
CM   -1.3109991831071623E+00    4.5217429617323190E-01    1.3677919325255790E+00
CT   -5.4414440745911774E-01    2.7093720528691789E-01    1.3404981653622397E-01
CM   -1.1884933550516812E+00    6.0022222196632735E-01   -1.1401277238387082E+00
CK    6.4141834013183707E-01   -4.2393699483552588E-01    2.5253652436896896E+00
HA   -1.1383796897467811E+00    5.8175844697152021E-02    3.6715802556865778E+00
HA   -2.2724144022167976E+00    1.0837038634220992E+00    1.4650789919552525E+00
HA   -2.1895840052990101E+00    1.0701550158006197E+00   -1.2269818598475675E+00
HA    1.2969806097538863E+00   -6.1342248753763673E-01    3.4778866793060312E+00
CT    7.2407421100739278E-01   -4.1187846928989319E-01    1.6919318945307030E-01
CK   -4.4362152170037633E-01    2.2667024990194976E-01   -2.3833473958011084E+00
CM    1.2945462541701771E+00   -8.3346910089417381E-01    1.3406888715356131E+00
CM    1.4160295617780316E+00   -5.9004890866805404E-01   -1.0665579802245688E+00
CK    8.1240541170195368E-01   -4.2389150559179195E-01   -2.3494050789207472E+00
HA   -8.5113727532600914E-01    5.0731194933233181E-01   -3.3490810860922018E+00
HA    2.2564749892889271E+00   -1.2561850122721563E+00    1.3557352469537718E+00
HA    2.4018838197259056E+00   -9.9651651459959356E-01   -1.0469819850655142E+00
HA    1.2385676981584315E+00   -8.1776106489818201E-01   -3.2216224478367868E+00
CT    5.6504440600196357E+00   -4.5822563651976467E-01    2.5759527342615876E+00
CT    6.3491704707830667E+00   -8.5772061290022572E-01    1.3690835727136086E+00
CT    5.8605620130764251E+00   -5.0550203412790529E-01    9.4088938735051073E-02
CT    6.3747545758202504E+00   -1.0239715213939273E+00   -1.1006356771166652E+00
CT    4.6516179920151597E+00    5.1536708158805289E-01    2.5046492737264145E+00
HA    5.8527752371096025E+00   -9.1705825087193638E-01    3.5432476960646091E+00
HA    7.2084332913557727E+00   -1.5103766191648580E+00    1.6084966498855986E+00
HA    7.0735719557376244E+00   -1.8749392172384505E+00   -1.0577254173961930E+00
HA    4.1354975421603353E+00    8.4412566267994094E-01    3.3895746014690822E+00
CT    4.8459122783344224E+00    4.6340223535022046E-01   -4.4832938294867689E-02
CT    5.8908560256883131E+00   -6.0725297870896033E-01   -2.3677374600221359E+00
CT    4.2922668343638843E+00    1.0156668245032696E+00    1.1831096361040419E+00
CT    4.4796253859361741E+00    9.9303874957359561E-01   -1.2654579675612758E+00
CT    5.0521151159154032E+00    4.9696365716621205E-01   -2.4095355958640843E+00
HA    6.4887713540202769E+00   -1.0481124025080486E+00   -3.2209602893326328E+00
HA    3.4645324808251381E+00    1.7532567368428562E+00    1.1656038377606723E+00
HA    3.8217040949818775E+00    1.8657114220731590E+00   -1.3425855403430060E+00
HA    4.8147672096018272E+00    7.9745548644972508E-01   -3.4837382402656982E+00
CT    1.0000582126742986E+01   -6.6390186962954423E-01    2.5552556339908645E+00
CT    1.0511769035244388E+01   -1.2055071962092332E+00    1.3799690257746287E+00
CT    1.0339473804503669E+01   -5.8718249094323838E-01    1.3614012868063802E-01
CT    1.0818945150372771E+01   -1.1916633209204104E+00   -1.0771892866112878E+00
CT    9.3767530317241317E+00    5.8648482050796202E-01    2.4427936465253075E+00
HA    1.0026473769319466E+01   -1.2733891978670866E+00    3.4606713839741929E+00
HA    1.1139539587758273E+01   -2.1454183375165887E+00    1.4440457587037860E+00
HA    1.1455048173516561E+01   -2.0854319549613489E+00   -1.1570935434931269E+00
HA    8.9650388510961658E+00    1.0167957730339934E+00    3.3596092248464600E+00
CT    9.4981946684202594E+00    6.1401471912337291E-01    2.1567024510805863E-02
CT    1.0641974817239383E+01   -5.2045150225738224E-01   -2.3347061387626340E+00
CT    9.1109918879650564E+00    1.1769716643425754E+00    1.1875499715438513E+00
CT    9.3326720368738503E+00    1.1814860799436275E+00   -1.2560536561858480E+00
CT    9.7890484215588884E+00    5.9300374143091394E-01   -2.4111872172127846E+00
HA    1.1053223733158758E+01   -9.4371006389988199E-01   -3.2988599353532160E+00
HA    8.5784234267006489E+00    2.1664817192943620E+00    1.1984714424526786E+00
HA    8.6547137494884847E+00    2.0417033415836894E+00   -1.3619707358912545E+00
HA    9.3955695404304826E+00    8.8094997537982822E-01   -3.3361440927167134E+00
CC    1.5655038256681030E+01   -7.8035462105376008E-01    3.5993297315314172E+00
CB    1.5979999821548544E+01   -1.3587620266958824E+00    2.3908375542254166E+00
CP    1.5407358288358344E+01   -8.8855336913944327E-01    1.2213241018779835E+00
CA    1.6040356428449641E+01   -1.3539522676318021E+00   -9.9269070976627316E-04
CP    1.4465257623500229E+01    1.5521030362001140E-01    1.2266324384813549E+00
CB    1.4033734180473690E+01    6.2487701058612188E-01    2.4890896941975229E+00
CC    1.4630062855917064E+01    1.4460029795930329E-01    3.6574540080440769E+00
H    1.6108928971632448E+01   -1.1484383766992963E+00    4.5061771809778985E+00
H    1.6838497760775571E+01   -2.1111707054235773E+00    2.4420214079663731E+00
H    1.6841028654861034E+01   -2.0059393621035029E+00    7.2929682705621279E-02
H    1.3315427038404676E+01    1.4739116080291823E+00    2.5718135854294246E+00
H    1.4370416562817175E+01    6.4343985760990385E-01    4.6096646999674649E+00
CP    1.5546820353090753E+01   -8.3828878727849976E-01   -1.2392664627089325E+00
CA    1.3990798133565908E+01    6.2553487937249408E-01   -4.4357645757431209E-02
CP    1.4558661944179672E+01    1.5391536396933161E-01   -1.2867258606012000E+00
CB    1.6228589910989466E+01   -1.1904668816136910E+00   -2.4040467289435505E+00
H    1.3158312259102567E+01    1.3244208800701327E+00   -8.2445002281313698E-02
CB    1.4109123629370904E+01    6.5291781321882048E-01   -2.5341987929735592E+00
CC    1.5687484541663638E+01   -6.9620296185562058E-01   -3.6511885181034116E+00
H    1.7180342125605570E+01   -1.7520004878157189E+00   -2.4152542978254234E+00
CC    1.4663228242745195E+01    1.6705917280980992E-01   -3.7269336564285269E+00
H    1.3313062464205407E+01    1.4267551669317624E+00   -2.5983095820195330E+00
H    1.6232225733044530E+01   -8.9422337309538480E-01   -4.5540352770667418E+00
H    1.4335356145353220E+01    5.7942564083851011E-01   -4.6892080736380155E+00
CA    2.0610962735682818E+01   -9.8685256375468267E-01    3.5984018721636528E+00
CA    2.1044709531597171E+01   -1.4335239038990804E+00    2.3093808603649073E+00
CA    2.0585960742243532E+01   -7.9347269495368344E-01    1.1217554459293995E+00
CA    2.0961371595163619E+01   -1.2375013535491997E+00   -1.8676684483765393E-01
CA    1.9624028851004738E+01    2.5150761227970403E-01    1.2430357599248836E+00
CA    1.9126338577799206E+01    5.9096081862529504E-01    2.5430234358108303E+00
CA    1.9682832820535300E+01    5.8456715626655185E-02    3.6454131963858223E+00
H    2.0952200373579881E+01   -1.5208369890074680E+00    4.5315278094813571E+00
H    2.1772015264629825E+01   -2.2552523312764050E+00    2.2425877044977840E+00
H    2.1599883544646445E+01   -2.1183893090108286E+00   -3.5632806770202496E-01
H    1.8417037917150413E+01    1.3640804943693143E+00    2.6725234459965570E+00
H    1.9359824790878903E+01    3.9886556965954234E-01    4.6351120778036563E+00
CA    2.0456937530093370E+01   -5.7591088420319592E-01   -1.3601062848340209E+00
CA    1.9122321109602684E+01    8.3993514021096571E-01    1.4815832939027473E-01
CA    1.9512161075965160E+01    4.6234838088332175E-01   -1.1905686508466731E+00
CA    2.0855651612176043E+01   -8.8081600284886585E-01   -2.6601268075616002E+00
H    1.8525631329882376E+01    1.7237486773307753E+00    4.0066848983254461E-01
CA    1.8914950404215134E+01    1.1255717455971896E+00   -2.2687125620914612E+00
CA    2.0285290422310926E+01   -3.1531023941585329E-01   -3.7427916160476520E+00
H    2.1537501686048707E+01   -1.6900003772619565E+00   -2.7622995487186555E+00
CA    1.9284740871056499E+01    7.2546073374733699E-01   -3.5405806719916568E+00
H    1.8363726764738171E+01    1.9940548683609260E+00   -2.1561536645708705E+00
H    2.0494028973574245E+01   -5.8789626340298906E-01   -4.7850637102203581E+00
H    1.8912681570053156E+01    1.2688965940238852E+00   -4.4548877796432178E+00
CA    2.5370430431170391E+01   -5.6825094130570897E-01    3.8189663207109219E+00
CA    2.5946950944373942E+01   -1.0386359720096248E+00    2.6271934039679437E+00
CA    2.5472422259666583E+01   -5.8243809199977903E-01    1.4041971506683655E+00
CA    2.6085891746531765E+01   -1.0392780045490302E+00    2.0097238524404631E-01
CA    2.4293121995976843E+01    2.8599136396725883E-01    1.3208105006715858E+00
CA    2.3706078926711552E+01    6.4499701548264443E-01    2.5161892965934691E+00
CA    2.4305808721846695E+01    3.1623572904612079E-01    3.7422798837125719E+00
H    2.5861736547026325E+01   -9.7971160783443734E-01    4.7130841024811634E+00
H    2.6741451828714411E+01   -1.7637584031743594E+00    2.6978517381944309E+00
H    2.7017856693093972E+01   -1.5638828713424655E+00    3.7730947482440130E-01
H    2.2870894757609765E+01    1.3598336238544433E+00    2.4643548796396053E+00
H    2.3773487226653319E+01    7.9499710971066073E-01    4.5747963877443771E+00
CA    2.5614007176845917E+01   -6.0023721753525439E-01   -1.0450215285769031E+00
CA    2.3834481029015141E+01    7.1206773062111950E-01    3.8340447890048930E-02
CA    2.4435379708813858E+01    2.0586928065350021E-01   -1.1196122424864963E+00
CA    2.6222928333786218E+01   -8.3673501320547039E-01   -2.3223449240817469E+00
H    2.3034502305535710E+01    1.3689433640362973E+00    2.3270229243331959E-02
CA    2.3869054568898004E+01    6.3850413483649593E-01   -2.3326787885268163E+00
CA    2.5687445390967010E+01   -4.2115098352304581E-01   -3.5570853650066461E+00
H    2.7151652483691066E+01   -1.4231694525170913E+00   -2.2845845549703476E+00
CA    2.4555237074130901E+01    3.5559510474208150E-01   -3.5675472831010917E+00
H    2.2956053048872192E+01    1.2943063932007086E+00   -2.4618679906145688E+00
H    2.6295573237043701E+01   -5.4184300953950415E-01   -4.4666326584327667E+00
H    2.4049694548980263E+01    5.7550837953833245E-01   -4.5087038074268921E+00
Ne   -3.0519807398444062E+01   -3.1893583870709961E+02   -1.6966317912408155E+02
Ne   -3.0030046726055605E+02    1.6347212671021339E+02   -5.6597793614642221E+01
Ne   -2.5547297057691372E+02   -2.1697026950049568E+02   -1.6824758020070178E+01
Ne   -3.7185918016020838E+02   -1.0696165490704277E+02   -6.6513981930264364E+01
Ne    2.5579570559568560E+02   -2.4633792576354037E+02   -4.1336827292699432E+01
Ne   -9.0085492323626582E+01    1.6690507624441728E+00   -2.7749445665592765E+02
Ne   -4.3813212798972120E+02    3.2839109468530478E+02   -4.2302872266083926E+02
Ne   -3.0368808861039387E+01   -1.5403835564414283E+02   -1.5698948257940529E+02
Ne    1.7558115494009550E+02    2.7738480741712301E+01    2.9082757936915328E+02
Ne   -1.6171317770057047E+02    1.4240245732149506E+02   -4.5246636280157347E+01
Ne   -4.1343344797516539E+02    6.4339699699071687E+01    2.7994172265985537E+02
Ne   -9.2501014294576542E+00   -2.3232249838018993E+02   -1.5113921240732972E+02
Ne    1.4424671893255729E+02   -5.5996110286617800E+01    2.0628997821427595E+02
Ne    1.0791716892461187E+02   -2.4708259075511879E+02    8.9497364756709118E+01
Ne    4.7128553910331043E+01    1.8911210645096358E+02    1.6758818900647162E+02
Ne   -2.0274398017209924E+02   -1.0043519864189197E+02   -2.6231077794887557E+02
Ne   -1.8347947175655281E+02    2.1780557025787050E+02    1.8991395680840145E+02
Ne    1.0206660856158766E+01    3.8134173865680858E+00   -1.4847392429738443E+02
Ne   -3.3123445989127703E+02   -1.2228370277054384E+02    7.2175799946930477E+00
Ne   -8.7474504348039318E+01   -2.9818466898763088E+01    5.5708230560152487E+01
Ne    3.3952566134376605E+02    2.5461478456931036E+02    2.7903079824055317E+02
Ne    4.7552265135882294E+02    4.6666345784281702E+01    2.7147696281910117E+02
Ne   -3.5398987363800137E+02   -2.0184882731824138E+02   -1.4163448518404840E+02
Ne   -9.7592994427979875E+01    2.0290719201158335E+01    1.3290220092932759E+02
Ne   -3.9053569952794527E+02    2.5366886421092713E+02    3.9938548055976817E+01
Ne   -2.0838473978108070E+02   -2.4145419097409180E+02   -3.1833082929195033E+01
Ne   -9.7433623314018227E+00   -1.3994527163894941E+02    2.2503346189845715E+01
Ne   -2.2100300427536277E+02   -2.2179400635530200E+01    2.1037382040431240E+02
Ne    2.7240103403679120E+02   -1.1179347024463986E+02    9.2706446240684045E+01
Ne    4.6583092911810681E+01   -9.6702129765914577E+01   -2.1841683392662529E+02
Ne   -2.5422895579585324E+02   -3.4938552711602165E+02   -9.3517352858003221E+01
Ne    6.0394925018180452E+01   -3.5108376663784998E+02    1.2542057082798060E+02
Ne   -2.1652313343145050E+02    4.6301566382097079E+01    3.2125347201153323E+02
Ne    4.7885486504134860E+01   -1.6412661366561321E+02   -4.9190952168477224E+02
Ne   -9.4072236104200528E+01   -1.2695499675712563E+01   -1.4033409479182205E+02
Ne   -3.7569639552353067E+02    1.3112909591296594E+02    5.4618783007998763E+02
Ne   -1.2903724704307788E+02   -1.8472305181978339E+02    6.3328801906408971E-01
Ne    2.3446839431829903E+02   -2.7483470046272919E+02   -3.6631302113662593E+02
Ne   -2.5110069094931737E+02   -8.4152245628636123E+01   -1.6118551597411437E+02
Ne    4.6538370111390714E+02    3.4455993964448828E+02    1.1933779942960484E+02
Ne   -2.7550194132348391E+01    5.0105542354191542E+01    1.9792842105797993E+02
Ne   -1.9501925308664210E+02   -7.6284704701764184E+01   -6.9021249265100352E+01
Ne   -1.1962438677925381E+02   -2.7979284585733387E+02   -2.9281937860559390E+02
Ne   -4.5458921651023992E+01   -1.5781888175678520E+02    2.4454637461065994E+02
Ne    4.9490233049949796E+02    2.2413069283966497E+01    1.9007700637281161E+02
Ne   -2.6370732221706754E+02    2.2348217529904903E+02    1.0955123137441386E+02
Ne   -4.0038130033192596E+02   -1.1962165552053526E+02    3.8584741766155889E+02
Ne    4.6101430041162780E+02    4.3624129752742562E+02   -1.6843764073626369E+02
Ne   -6.7165351602335335E+01   -1.9222012449856456E+02    4.2972415733924038E+02
Ne    6.0423778566834551E+02    1.5107453209210718E+02    2.5865975946966398E+02
Ne   -8.6703337138214692E+01   -1.0602509475552539E+02   -3.0789829472505266E+02
Ne    1.3841598092719138E+02    2.4481379023018806E+02   -2.3048119055040115E+02
Ne    1.1232271792933722E+02   -2.1327196165450226E+02    2.3763942890756016E+02
Ne   -6.2813863151178930E+02    4.1069712280611213E+02   -6.0516793574988696E+02
Ne   -3.0995764238968121E+01    5.2870531001700641E+01   -8.3716514752200609E+01
Ne   -1.9675925376358057E+02   -1.8873889836159304E+01   -3.9635618072104086E+02
Ne    1.0086060786242807E+02    8.8424265495932616E+01   -1.3492480260140610E+02
Ne    4.6785704530513165E+01   -2.7350699577475790E+01   -2.6861088294551826E+02
Ne   -3.8650015749216772E+02    1.4234446997089375E+02   -5.4598811098397960E+02
Ne    1.6746103110620780E+02    1.4197822651724815E+02   -9.4795170154256340E+01
Ne    1.3180873275524823E+02   -2.3559092460345576E+02   -1.3054841832938160E+02
Ne    1.3325779145488480E+02    5.1687848358788926E+02    4.3899039956641036E+02
Ne   -8.6862737570335028E+01    8.8022944294924287E+01   -1.3202874443494881E+02
Ne    9.7141824127137937E+01   -2.4597281800273353E+02   -5.2425136950019201E+01
Ne    3.6645039175608127E+02    4.7120264248134966E+01   -4.0394706391597191E+02
Ne   -1.8455479805509054E+02    5.1261252529681201E+01   -1.6784187697150443E+01
Ne    1.8839527266906128E+01   -3.2576063848586324E+02    9.8279875696458010E+00
Ne   -1.4928106255971812E+02   -5.5162636379714129E+01    4.7982371666978139E+01
Ne   -2.1501086290564562E+01    1.1194327426050738E+02   -3.0668902585239050E+02
Ne    2.5852983567176707E+01    1.2600605966642736E+02    5.0435577208565412E+01
Ne    8.8587419813592504E+01   -1.7777392981668189E+02   -7.7586270545811828E+01
Ne   -1.9118569957128506E+02   -1.5681442717421839E+02    3.1540528915927285E+02
Ne   -5.3125531431878755E+02    4.3480097924212248E+02    1.0344137908373371E+02
Ne    3.3845005675300615E+02    2.0973082148921162E+02    4.3632624161015585E+01
Ne   -2.2895541898109417E+02   -2.8055165536356892E+01   -5.2320899847914376E+01
Ne   -1.2327344621837706E+02    5.0602116307654768E+02   -4.0736996116448995E+02
Ne   -9.8618867358815308E+01   -6.3423402817849393E+01   -3.2723105207365016E+01
Ne   -1.5933940376316397E+02   -2.2275548091238414E+02   -3.9244682965058075E+02
Ne   -6.2336464042978790E+01   -1.0589664658519429E+02   -1.9397784210818381E+02
Ne   -2.2350471737169053E+02    1.6100168254338354E+02   -1.0964927249379481E+02
Ne   -1.3155587393681228E+02    4.7366338271835383E+02   -2.3421634804492169E+02
Ne    1.6510382231626386E+02    1.9251978517545379E+02    3.8062089884273416E+02
Ne   -1.5282113076238798E+02    1.5858468056120648E+02   -1.0737452034958067E-01
Ne    1.2692719004259043E+01    1.8819087278866746E+02    5.7495032828071328E+02
Ne    2.2459640949085340E+01    3.3884199066513283E+01   -4.9928181675465362E+02
Ne    1.3030608237098332E+02   -3.7996742279177106E+01   -1.6135744983123081E+02
Ne   -2.3874535556601121E+01    2.0235271331442885E+02   -1.5391781352569433E+01
Ne   -5.4723451506180751E+01    1.6874749529449542E+02   -1.8154285711723708E+02
Ne    5.9335377634438551E+01    7.1915335400580815E+01    9.9800898924889793E+01
Ne    1.4729482237845352E+02    1.1453637084503721E+02    5.5475937906266347E+02
Ne    3.6313319527172104E+02    2.4929074249053417E+02   -1.6595721056588349E+02
Ne    1.9767619621175896E+02    9.7731593704863648E+00    9.3147064666170820E+01
Ne   -2.3284274870750048E+02    2.1631627667217560E+02   -3.4991427130126334E+02
Ne   -3.6811446884246905E+01   -2.4514866590395549E+01    3.2359899769092380E+01
Ne   -2.1334251127604981E+02   -2.6177968388703840E+02    1.6095981030249624E+02
Ne    4.9512328169231228E+02   -4.3178492922600086E+01    2.0803665457943296E+02
Ne   -1.7836906089531004E+02    2.3095820802843801E+02   -3.5455777209071402E+02
Ne    5.9287645505729841E+01   -4.4891934916025996E+01   -4.5950230058183018E+02
Ne    2.6024379233064714E+01    2.2750204548730298E+02    2.8538021426420080E+01
Ne   -7.4297492435740992E+01   -4.9536308086213637E+01    2.0349879757494790E+02
Ne   -1.8699832285551463E+02    2.5250391569289340E+02    2.0905624397092598E+02
Ne    2.0172623161497370E+02    9.8563825655897944E+01   -3.6855473880704658E+01
Ne    2.1532455326616602E+02    1.2982716466711312E+02   -1.6618105715103772E+02
Ne   -1.8265029213401650E+02   -1.7229223782678599E+02   -3.2847075159344342E+02
Ne   -2.1544020329225845E+01    1.4533915939443548E+02    1.5786766369801992E+02
Ne   -3.3803570808382324E+02    1.0910422035231751E+02   -1.8923341809594916E+02
Ne    2.8085586576305610E+02    1.0131931292334249E+02   -7.9133316012789649E+01
Ne   -4.3863149118908672E+02   -1.1338998553526986E+01   -6.8214132256595263E+01
Ne    2.1149233850676431E+01    1.9427970060689179E+02   -2.3204074956414419E+02
Ne    6.5119853528186900E+02    9.0615343240561259E+01    1.9105942836731703E+01
Ne    2.6055747541382277E+02    1.1262181981442914E+02   -2.3386395309504614E+01
Ne   -5.3074809702076195E+01   -1.9222504098805854E+02    2.2802965267336813E+02
Ne    5.7795375804625436E+01   -6.8996201902105838E+02   -1.9844581055596188E+02
Ne   -1.7297880388289053E+02    5.7255816516932259E+02   -1.2971976032401358E+02
Ne   -5.0308714263930892E+02   -8.3878365726346061E+01   -3.1054641853269476E+02
Ne   -3.0076364530074997E+01    1.8059391912417613E+02   -1.8014697574933390E+02
Ne   -1.9420573902431298E+02   -5.2605978821958857E+01    2.7539952742925050E+02
Ne   -1.1589581478907604E+02    2.8981716243531139E+02    3.8374787175698536E+01
Ne    2.2998194980168668E+02    7.7562595784542268E+01   -4.4859064979436731E+01
Ne   -2.7367163780912051E+02   -3.2535738838993831E+02   -1.3859489959148678E+02
Ne    1.0265690053983415E+02    1.1969028187171962E+02    3.3059557750041807E+02
Ne   -2.9402978029746248E+02   -1.1295748576504150E+02   -3.2404653357520807E+01
     &END COORD
     &VELOCITY
          -5.7890772204270542E-05    8.3678839945837215E-05   -2.8822963959418120E-04
          -1.7564172168688883E-04    9.2825480155511196E-05    8.6768654550332941E-05
          -4.7148634171326415E-04   -6.9421584217664819E-06   -9.6953929997706183E-05
          -4.9881028428517792E-05    2.6837686368682613E-04   -1.5681698681593569E-04
          -1.8414505168873912E-05   -1.5520174117965240E-04   -3.7004641229866896E-04
          -1.0998715528776617E-04    5.4921938835848208E-04    7.1926832963029215E-04
           1.0119233495730464E-03   -2.0694151320278066E-04    3.4374347777170269E-05
           8.5676400966533991E-04   -1.0891912150241022E-03   -4.5411803654263073E-04
           8.0340237757675235E-04   -1.4115933694310246E-04    7.1665740591475569E-04
          -3.8009604775522617E-04    2.0846068660139345E-05    4.3052884312152226E-05