#     Step Nr.          Time[fs]        Kin.[a.u.]          Temp[K]            Pot.[a.u.]        Cons Qty[a.u.]        UsedTime[s]
         0            0.000000         2.412123729       564.840579357         2.446232218         4.858355947         0.000000000
         1            0.100000         2.440711636       571.534933276         2.417622452         4.858334088        67.698707936
         2            0.200000         2.467926334       577.907726488         2.390386990         4.858313324         0.072593415
         3            0.300000         2.493438358       583.881809053         2.364855774         4.858294131         0.073122455
         4            0.400000         2.516943072       589.385845291         2.341333700         4.858276772         0.072793047
         5            0.500000         2.538165197       594.355373585         2.320096254         4.858261451         0.072950212
         6            0.600000         2.556862418       598.733652118         2.301385962         4.858248381         0.073379550
         7            0.700000         2.572828464       602.472378345         2.285409261         4.858237724         0.072232785
         8            0.800000         2.585895711       605.532300908         2.272333893         4.858229604         0.073323820
         9            0.900000         2.595937289       607.883710433         2.262286856         4.858224145         0.073073547
        10            1.000000         2.602868606       609.506798345         2.255352767         4.858221373         0.072639009
        11            1.100000         2.606648355       610.391892043         2.251572980         4.858221335         0.072625353
        12            1.200000         2.607278928       610.539551787         2.250945077         4.858224006         0.072993000
        13            1.300000         2.604806191       609.960517554         2.253423167         4.858229359         0.072671386
        14            1.400000         2.599318759       608.675540126         2.258918535         4.858237293         0.072744851
        15            1.500000         2.590946738       606.715086333         2.267300976         4.858247714         0.072894050
        16            1.600000         2.579859894       604.118909654         2.278400547         4.858260441         0.073047640
        17            1.700000         2.566265225       600.935482291         2.292010105         4.858275330         0.072887275
        18            1.800000         2.550404082       597.221320823         2.307888090         4.858292173         0.072472199
        19            1.900000         2.532548874       593.040214253         2.325761822         4.858310696         0.072783216
        20            2.000000         2.512999411       588.462368610         2.345331280         4.858330691         0.073008225
        21            2.100000         2.492078777       583.563439556         2.366273090         4.858351867         0.072800091
        22            2.200000         2.470128864       578.423487151         2.388245066         4.858373930         0.072810319
        23            2.300000         2.447505801       573.125904691         2.410890789         4.858396590         0.072492474
        24            2.400000         2.424575157       567.756297037         2.433844363         4.858419520         0.073067178
        25            2.500000         2.401706960       562.401312413         2.456735448         4.858442408         0.073594504
        26            2.600000         2.379221337       557.135913973         2.479243622         4.858464959         0.072860747
        27            2.700000         2.357528007       552.056044821         2.500958862         4.858486870         0.072547121
        28            2.800000         2.336980582       547.244508993         2.521527224         4.858507806         0.072881020
        29            2.900000         2.317917427       542.780540794         2.540610089         4.858527515         0.072589004
        30            3.000000         2.300657067       538.738728322         2.557888685         4.858545751         0.072359502
        31            3.100000         2.285493880       535.188005415         2.573068296         4.858562177         0.072492906
        32            3.200000         2.272694004       532.190692493         2.585882621         4.858576624         0.073027082
        33            3.300000         2.262491711       529.801648796         2.596097175         4.858588886         0.072865000
        34            3.400000         2.255086211       528.067522734         2.603512572         4.858598784         0.072623141
        35            3.500000         2.250638848       527.026095611         2.607967327         4.858606176         0.071738583
        36            3.600000         2.249270848       526.705754505         2.609340099         4.858610946         0.072389153
        37            3.700000         2.251061593       527.125088591         2.607551421         4.858613014         0.072444032
        38            3.800000         2.256047438       528.292610521         2.602564943         4.858612381         0.072636989
        39            3.900000         2.264221037       530.206600381         2.594387964         4.858609001         0.072405027
        40            4.000000         2.275531343       532.855104718         2.583071572         4.858602915         0.072322442
        41            4.100000         2.289884097       536.216050711         2.568710143         4.858594240         0.072432719
        42            4.200000         2.307142842       540.257485069         2.551440187         4.858583029         0.072262667
        43            4.300000         2.327130636       544.937973492         2.531438773         4.858569409         0.072477641
        44            4.400000         2.349632251       550.207116629         2.508921334         4.858553585         0.072245197
        45            4.500000         2.374396853       556.006177458         2.484138882         4.858535735         0.072193529
        46            4.600000         2.401141093       562.268804787         2.457375012         4.858516105         0.072198275
        47            4.700000         2.429552711       568.921877442         2.428942214         4.858494925         0.072156818
        48            4.800000         2.459294533       575.886440654         2.399177924         4.858472457         0.072304414
        49            4.900000         2.490008688       583.078692491         2.368440322         4.858449010         0.072037973
        50            5.000000         2.521321182       590.411055515         2.337103671         4.858424852         0.072221888
        51            5.100000         2.552846674       597.793295876         2.305553636         4.858400310         0.071897549
        52            5.200000         2.584193400       605.133675262         2.274182300         4.858375700         0.071898486
        53            5.300000         2.614968288       612.340148533         2.243383102         4.858351389         0.072543956
        54            5.400000         2.644783069       619.321796283         2.213544991         4.858328060         0.071975132
        55            5.500000         2.673279121       625.994640747         2.185034944         4.858314064         0.071988922
        56            5.600000         2.699982536       632.247708254         2.158300417         4.858282953         0.092947689
        57            5.700000         2.724754758       638.048553542         2.133486553         4.858241312         0.092542879
        58            5.800000         2.747028001       643.264219336         2.111179389         4.858207390         0.071711432
        59            5.900000         2.766723291       647.876212943         2.091457563         4.858180854         0.093611686
        60            6.000000         2.783348743       651.769350717         2.074805878         4.858154622         0.072111184
        61            6.100000         2.796842822       654.929222988         2.061297943         4.858140764         0.071966385
        62            6.200000         2.806960957       657.298559695         2.051170003         4.858130959         0.071696454
        63            6.300000         2.813541993       658.839623529         2.044581968         4.858123962         0.071807362
        64            6.400000         2.816470975       659.525495220         2.041648763         4.858119737         0.071772578
        65            6.500000         2.815677274       659.339636432         2.042441066         4.858118339         0.071596406
        66            6.600000         2.811135149       658.276019167         2.046984648         4.858119796         0.071714604
        67            6.700000         2.802864080       656.339205053         2.055259995         4.858124075         0.158836011
        68            6.800000         2.790928632       653.544313011         2.067202508         4.858131140         0.071563601
        69            6.900000         2.775437718       649.916846954         2.082703198         4.858140916         0.071542092
        70            7.000000         2.756543357       645.492404985         2.101609922         4.858153279         0.071742941
        71            7.100000         2.734438906       640.316264534         2.123729175         4.858168081         0.070902684
        72            7.200000         2.709356754       634.442843907         2.148828422         4.858185176         0.071273226
        73            7.300000         2.681565478       627.935034916         2.176638838         4.858204316         0.071252366
        74            7.400000         2.651366616       620.863448015         2.206858676         4.858225292         0.070983834
        75            7.500000         2.619090983       613.305549171         2.239156863         4.858247846         0.071350301
        76            7.600000         2.585094655       605.344719765         2.273177069         4.858271725         0.071388541
        77            7.700000         2.549754639       597.069242402         2.308541976         4.858296615         0.071093143
        78            7.800000         2.513464239       588.571216322         2.344857983         4.858322222         0.071540673
        79            7.900000         2.476628304       579.945443702         2.381719939         4.858348243         0.071275100
        80            8.000000         2.439658232       571.288260406         2.418716130         4.858374362         0.071162785
        81            8.100000         2.402966945       562.696359735         2.455433299         4.858400244         0.071411979
        82            8.200000         2.366963884       554.265618901         2.491461715         4.858425599         0.071400817
        83            8.300000         2.332050005       546.089928942         2.526400095         4.858450100         0.071440396
        84            8.400000         2.298612864       538.260042911         2.559860589         4.858473453         0.071424953
        85            8.500000         2.267021883       530.862466995         2.591473502         4.858495385         0.071330424
        86            8.600000         2.237623925       523.978425666         2.620891689         4.858515614         0.071443801
        87            8.700000         2.210739043       517.682864666         2.647794888         4.858533931         0.071320044
        88            8.800000         2.186656606       512.043544616         2.671893487         4.858550094         0.071112121
        89            8.900000         2.165631857       507.120235238         2.692932057         4.858563915         0.071561321
        90            9.000000         2.147882821       502.963990775         2.710692406         4.858575227         0.071732370
        91            9.100000         2.133587738       499.616549209         2.724996163         4.858583900         0.071544285
        92            9.200000         2.122882957       497.109839227         2.735706905         4.858589861         0.070806317
        93            9.300000         2.115861349       495.465608100         2.742731657         4.858593006         0.070148262
        94            9.400000         2.112571326       494.695192159         2.746021998         4.858593324         0.071151837
        95            9.500000         2.113016322       494.799395616         2.745574505         4.858590826         0.070664261
        96            9.600000         2.117154868       495.768507916         2.741430675         4.858585542         0.071100788
        97            9.700000         2.124901255       497.582458732         2.733676299         4.858577554         0.071415246
        98            9.800000         2.136126713       500.211094332         2.722440257         4.858566970         0.071398858
        99            9.900000         2.150661174       503.614590331         2.707892744         4.858553919         0.071429583
       100           10.000000         2.168295515       507.743976923         2.690243049         4.858538565         0.071358856
       101           10.100000         2.188784279       512.541776102         2.669736842         4.858521121         0.071319508
       102           10.200000         2.211848839       517.942742641         2.646652987         4.858501826         0.071535515
       103           10.300000         2.237180971       523.874700327         2.621299915         4.858480886         0.071373612
       104           10.400000         2.264446831       530.259474160         2.594011785         4.858458616         0.071403509
       105           10.500000         2.293291193       537.013881265         2.565144063         4.858435255         0.071295754
       106           10.600000         2.323341967       544.050790898         2.535069176         4.858411143         0.071377455
       107           10.700000         2.354214924       551.280228974         2.504171626         4.858386550         0.071495847
       108           10.800000         2.385518521       558.610508761         2.472843268         4.858361789         0.071111327
       109           10.900000         2.416858888       565.949398790         2.441478286         4.858337173         0.070868873
       110           11.000000         2.447844775       573.205281337         2.410468255         4.858313030         0.071031469
       111           11.100000         2.478092371       580.288280190         2.380197247         4.858289618         0.070558491
       112           11.200000         2.507226634       587.110572941         2.351038233         4.858264867         0.071224741
       113           11.300000         2.534927533       593.597218532         2.323340804         4.858268337         0.092312100
       114           11.400000         2.560805092       599.656897411         2.297443683         4.858248775         0.071332155
       115           11.500000         2.584578301       605.223806525         2.273652845         4.858231147         0.071238566
       116           11.600000         2.605968551       610.232704288         2.252247015         4.858215567         0.071201729
       117           11.700000         2.624730148       614.626057393         2.233472032         4.858202180         0.071071116
       118           11.800000         2.640653064       618.354684002         2.217538121         4.858191185         0.071084932
       119           11.900000         2.653565384       621.378327536         2.204617315         4.858182698         0.071364322
       120           12.000000         2.663335326       623.666128793         2.194841474         4.858176800         0.071322456
       121           12.100000         2.669872741       625.196977912         2.188300820         4.858173561         0.071520737
       122           12.200000         2.673130065       625.959736712         2.185042925         4.858172990         0.071376044
       123           12.300000         2.673102699       625.953328628         2.185072402         4.858175101         0.071121983
       124           12.400000         2.669828897       625.186711079         2.188350949         4.858179846         0.071589427
       125           12.500000         2.663389070       623.678714016         2.194798078         4.858187148         0.071289175
       126           12.600000         2.653904504       621.457738436         2.204292376         4.858196880         0.071237313
       127           12.700000         2.641535645       618.561355735         2.216673282         4.858208926         0.071088179
       128           12.800000         2.626479848       615.035779899         2.231743257         4.858223105         0.071144011
       129           12.900000         2.608968598       610.935217206         2.249270620         4.858239218         0.070701788
       130           13.000000         2.589264323       606.321119768         2.268992727         4.858257050         0.071475085
       131           13.100000         2.567656879       601.261362149         2.290619471         4.858276350         0.071275894
       132           13.200000         2.544459627       595.829323466         2.313837230         4.858296856         0.071250089
       133           13.300000         2.520005238       590.102904494         2.338313038         4.858318276         0.071261081
       134           13.400000         2.494641301       584.163499128         2.363699065         4.858340367         0.070905883
       135           13.500000         2.468725675       578.094906073         2.389637110         4.858362785         0.070713466
       136           13.600000         2.442621718       571.982212167         2.415763544         4.858385262         0.071109524
       137           13.700000         2.416693523       565.910675908         2.441713962         4.858407485         0.071303856
       138           13.800000         2.391301090       559.964597526         2.467128073         4.858429163         0.070866060
       139           13.900000         2.366795520       554.226193473         2.491654467         4.858449987         0.071367911
       140           14.000000         2.343514441       548.774525446         2.514955257         4.858469699         0.070822351
       141           14.100000         2.321777575       543.684461392         2.536710463         4.858488038         0.071286670
       142           14.200000         2.301882550       539.025696614         2.556622205         4.858504755         0.070799494
       143           14.300000         2.284101010       534.861840774         2.574418620         4.858519630         0.071195501
       144           14.400000         2.268674993       531.249571372         2.589857471         4.858532464         0.071293736
       145           14.500000         2.255813777       528.237894934         2.602729313         4.858543090         0.071553897
       146           14.600000         2.245691149       525.867505912         2.612860213         4.858551362         0.070956774
       147           14.700000         2.238443128       524.170256306         2.620114045         4.858557173         0.071752111
       148           14.800000         2.234166245       523.168749930         2.624394201         4.858560446         0.161769968
       149           14.900000         2.232916258       522.876043924         2.625644871         4.858561129         0.053334954
       150           15.000000         2.234707433       523.295478470         2.623851791         4.858559224         0.044107638
       151           15.100000         2.239512403       524.420645669         2.619042348         4.858554752         0.041106505
       152           15.200000         2.247262566       526.235480615         2.611285209         4.858547776         0.041221499
       153           15.300000         2.257848999       528.714477416         2.600689385         4.858538385         0.041314161
       154           15.400000         2.271123902       531.823025985         2.587402804         4.858526706         0.064250459
       155           15.500000         2.286902589       535.517878931         2.571610299         4.858512887         0.074558295
       156           15.600000         2.304965968       539.747732331         2.553531146         4.858497115         0.071513812
       157           15.700000         2.325063430       544.453901356         2.533416151         4.858479581         0.070259412
       158           15.800000         2.346916162       549.571097198         2.511544377         4.858460538         0.053982452
       159           15.900000         2.370220797       555.028281592         2.488219447         4.858440244         0.038720082
       160           16.000000         2.394653486       560.749619176         2.463765462         4.858418949         0.038770357
       161           16.100000         2.419874173       566.655480056         2.438522765         4.858396937         0.038603161
       162           16.200000         2.445531090       572.663491879         2.412843414         4.858374504         0.038667591
       163           16.300000         2.471265420       578.689631325         2.387086536         4.858351956         0.038632466
       164           16.400000         2.496715965       584.649317609         2.361613607         4.858329572         0.038749596
       165           16.500000         2.521524007       590.458550552         2.336783645         4.858307651         0.038715004
       166           16.600000         2.545338048       596.035021137         2.312948440         4.858286489         0.038785924
       167           16.700000         2.567818392       601.299183202         2.290447987         4.858266379         0.038744441
       168           16.800000         2.588641637       606.175306896         2.269605922         4.858247559         0.038724652
       169           16.900000         2.607504988       610.592487538         2.250725315         4.858230302         0.038628440
       170           17.000000         2.624130297       614.485591947         2.234084546         4.858214843         0.038718612
       171           17.100000         2.638267773       617.796126861         2.219933614         4.858201387         0.038586264
       172           17.200000         2.649699276       620.473011505         2.208490840         4.858190116         0.038705803
       173           17.300000         2.658241268       622.473266960         2.199939906         4.858181174         0.038496065
       174           17.400000         2.663747314       623.762603031         2.194427376         4.858174691         0.038617988
       175           17.500000         2.666110025       624.315872858         2.192060736         4.858170762         0.038735157
       176           17.600000         2.665262628       624.117440141         2.192906814         4.858169443         0.038922921
       177           17.700000         2.661179945       623.161409086         2.196990823         4.858170768         0.038571164
       178           17.800000         2.653878770       621.451712464         2.204295946         4.858174717         0.038689395
       179           17.900000         2.643417869       619.002111124         2.214763384         4.858181253         0.038589812
       180           18.000000         2.629897375       615.836053085         2.228292943         4.858190318         0.038734308
       181           18.100000         2.613457582       611.986390636         2.244744201         4.858201783         0.038759934
       182           18.200000         2.594277291       607.494993118         2.263938246         4.858215537         0.038904253
       183           18.300000         2.572571685       602.412249263         2.285659724         4.858231409         0.038669148
       184           18.400000         2.548589650       596.796440143         2.309659556         4.858249207         0.038658048
       185           18.500000         2.522610733       590.713026261         2.335657969         4.858268702         0.038769142
       186           18.600000         2.494941695       584.233841445         2.363347974         4.858289669         0.038839813
       187           18.700000         2.465912693       577.436197552         2.392399139         4.858311832         0.038566451
       188           18.800000         2.435873226       570.401935615         2.422461699         4.858334924         0.038721001
       189           18.900000         2.405187700       563.216387972         2.453170962         4.858358662         0.038491914
       190           19.000000         2.374230908       555.967318551         2.484151864         4.858382772         0.038520781
       191           19.100000         2.343383403       548.743840491         2.515023525         4.858406928         0.038520301
       192           19.200000         2.313026687       541.635289301         2.545404153         4.858430840         0.038601528
       193           19.300000         2.283538424       534.730101364         2.574915785         4.858454209         0.038607628
       194           19.400000         2.255287764       528.114719694         2.603188984         4.858476748         0.038655502
       195           19.500000         2.228630705       521.872507266         2.629867478         4.858498182         0.038404141
       196           19.600000         2.203905613       516.082698562         2.654612618         4.858518231         0.038477466
       197           19.700000         2.181428991       510.819408010         2.677107663         4.858536654         0.038688929
       198           19.800000         2.161491501       506.150699064         2.697061718         4.858553219         0.038673868
       199           19.900000         2.144354277       502.137720916         2.714213448         4.858567724         0.038603665
       200           20.000000         2.130245669       498.833945839         2.728334315         4.858579984         0.038532922
