13824
 i =        0, time =        0.000, E =        36.7279745986
  C        -0.9889480707        0.1487841581        2.4352809140
  C        -0.3247669229        0.9901535737        1.5729081979
  C         0.0222574402        0.5490833908        0.2598377294
  C         0.8153215151        1.3679937834       -0.5571196464
  C        -1.4547783706       -1.1372034028        1.9412983902
  H        -1.2284948575        0.4142340448        3.4493803112
  H        -0.0295045360        1.8922429166        1.9588605286
  H         1.2195203516        2.2581717973       -0.2143556495
  H        -1.9811844648       -1.6752128738        2.6674343265
  C        -0.3953341169       -0.6912114837       -0.1638201983
  C         1.1630828236        0.9625769648       -1.8122896444
  C        -1.1921751602       -1.5075396640        0.6600132468
  C         0.0323596508       -1.1332251321       -1.4379767033
  C         0.8102782715       -0.3401391232       -2.2675379853
  H         1.7510687602        1.5414138875       -2.2912178935
  H        -1.7091504260       -2.4111952161        0.3791976367
  H        -0.1716926105       -2.1498092253       -1.8277943029
  H         1.0731980108       -0.8156363859       -3.1285271534
  C         4.8763685499        3.0845742335       -2.4552745615
  C         4.2659489162        3.9927300106       -1.5949925589
  C         3.9407320805        3.5747010317       -0.2474849075
  C         3.1797389698        4.4251878925        0.5378231426
  C         5.2349428326        1.8064685078       -1.9592554767
  H         5.2500322509        3.3506501371       -3.4116626773
  H         4.0464710908        4.9570427228       -1.8842262859
  H         2.8900008309        5.3345376083        0.1575564200
  H         5.6781209659        1.2343669554       -2.6153114292
  C         4.2736465180        2.2945721482        0.2232309626
  C         2.8372176898        4.1190103115        1.8094527141
  C         4.9502840921        1.3934984743       -0.6442324583
  C         3.6833320734        1.8801611239        1.5031556497
  C         3.0385401732        2.8148731069        2.3209057401
  H         2.3285710664        4.8191973905        2.5532603758
  H         5.1427854366        0.4255638322       -0.3680452511
  H         3.8666167990        0.9620792488        1.8282675551
  H         2.6138387445        2.6563237340        3.3610561952
  C        -6.0907778586       -0.0683010298        9.5534938790
  C        -5.4133158509        0.8373505927        8.7589390312
  C        -5.0106769351        0.4233634964        7.4276051239
  C        -4.3257767524        1.3587708072        6.6027744640
  C        -6.3391896655       -1.3950193997        9.1111650210
  H        -6.4139788059        0.1026697321       10.6577872389
  H        -5.2271563841        1.7391067781        9.1221749996
  H        -4.1583638611        2.2679307028        7.0430333261
  H        -6.8645355471       -1.9677900381        9.9081458068
  C        -5.2682897713       -0.8632184889        6.9802312067
  C        -3.8953075718        0.9753887073        5.3470166874
  C        -5.9551369617       -1.7823525168        7.8119256099
  C        -4.8713965336       -1.2395853982        5.6689381388
  C        -4.1893405081       -0.3108425758        4.8944259229
  H        -3.4655718960        1.6503510172        4.7082463154
  H        -6.1897102756       -2.6385870648        7.5161724514
  H        -5.0112046887       -2.1633331231        5.3388879693
  H        -3.8992371702       -0.5971308454        3.9509912734
  C         0.1369784417        2.9953823350        4.5933078655
  C        -0.6635149954        3.8644263660        5.3516938525
  C        -1.1065463770        3.4814261532        6.6590560091
  C        -1.8814831151        4.3405915151        7.4790463862
  C         0.5322000831        1.7633833000        5.0970560798
  H         0.5848863956        3.0844257394        3.6359598544
  H        -0.9486671893        4.8218785091        5.0428392597
  H        -2.2531029127        5.1574532227        6.9796194561
  H         1.0886907751        1.2103891829        4.4539911582
  C        -0.8008658097        2.2731952033        7.1707594745
  C        -2.2830874500        3.9071502039        8.7444856863
  C         0.0087358047        1.3335540106        6.4178863536
  C        -1.1992986425        1.8073366228        8.4240782526
  C        -1.9564245117        2.6677937856        9.2136218784
  H        -2.8965322406        4.4709236055        9.3381804124
  H         0.3912616944        0.3978362696        6.8448747880
  H        -0.8253631365        0.8924031848        8.7956074213
  H        -2.2347968461        2.3454907547       10.1575522813
  C       -10.5750123068        0.2356555213       16.6709831980
  C        -9.8304320010        0.9530091757       15.7879895211
  C        -9.5107407341        0.4425358668       14.4773729366
  C        -8.9087607176        1.3408339410       13.5585130668
  C       -10.9609215090       -1.0847753236       16.3376162060
  H       -10.7586586727        0.6083187240       17.6569624307
  H        -9.5865675256        1.9261947226       16.0160642789
  H        -8.6155946763        2.3193494826       13.7008104458
  H       -11.4910088850       -1.5407215114       17.0216875115
  C        -9.8552323411       -0.8197502549       14.1381017880
  C        -8.5857516151        0.9246125300       12.2792547397
  C       -10.5821970382       -1.5872413591       15.0607893939
  C        -9.4678913905       -1.3192430812       12.8468211981
  C        -8.8750643094       -0.4489084939       11.8794849467
  H        -8.0612952514        1.4305413103       11.5421087684
  H       -10.8947286942       -2.6002824900       14.7955595124
  H        -9.5347280362       -2.2049766710       12.4991956946
  H        -8.5210347015       -0.7194760486       10.9029125752
  C        -4.7839905557        3.0637515727       12.0632741029
  C        -5.5016102244        3.9817707696       12.7849828304
  C        -6.0167322247        3.5676120308       14.1030059327
  C        -6.7436600194        4.4678375296       14.9398470529
  C        -4.5160459401        1.7796290635       12.5165856800
  H        -4.3296508171        3.4323901073       11.1393532136
  H        -5.7189042615        4.9020473481       12.5819696135
  H        -7.0024984146        5.4682925099       14.7029115906
  H        -3.9285646961        1.1398078318       11.9932598280
  C        -5.8059251589        2.2597389892       14.5475472896
  C        -7.1566806304        4.0220308066       16.2486537939
  C        -4.9936151755        1.3278947040       13.7740164760
  C        -6.2220814714        1.7862426357       15.8364332315
  C        -6.8851195347        2.7024413538       16.6552885065
  H        -7.6243605996        4.4609232825       17.0473020589
  H        -4.7063739170        0.4241850969       14.1432555352
  H        -6.0107277573        0.8568711959       16.1574894749
  H        -7.3058191295        2.5814797031       17.6996747608
  C       -15.9935663935        0.0217734930       23.7143554886
  C       -15.1963697748        0.8960401724       23.1254290695
  C       -14.5875731104        0.5967438426       21.8907613126
  C       -13.8216913681        1.5735314705       21.1815594927
  C       -16.3071286066       -1.2241552664       23.1487796631
  H       -16.4926309710        0.2348373580       24.6517583774
  H       -14.8749097247        1.7832869399       23.5244710699
  H       -13.6366713336        2.4464311081       21.6586380519
  H       -17.0120031889       -1.8863244302       23.7343871395
  C       -14.8445955540       -0.6095736714       21.2858674984
  C       -13.1635843483        1.2310348572       19.9687620015
  C       -15.6963130035       -1.5985559787       21.9485715518
  C       -14.2601873472       -0.9628455119       20.0078915692
  C       -13.3925452889       -0.0185539631       19.4006389588
  H       -12.5037983516        1.7877208467       19.4018551561
  H       -15.7047727795       -2.5263924990       21.5786180012
  H       -14.3690900172       -1.7796317263       19.5136760593
  H       -12.7030077073       -0.1428311362       18.5909437702
  C        -9.8113045592        3.1482964939       19.2083390252
  C       -10.5891858739        4.0214824301       19.9848157359
  C       -10.9108902273        3.6768971006       21.3353391497
  C       -11.6997216276        4.5435974143       22.1252871252
  C        -9.4364126435        1.9317057454       19.7441501699
  H        -9.4278047312        3.3953294447       18.2725260597
  H       -10.8525861314        4.9165144836       19.7045399016
  H       -12.0571233294        5.3800529411       21.7245800716
  H        -8.8959767351        1.3174547061       19.1340883415
  C       -10.5275577796        2.4090194415       21.8234822033
  C       -12.0496693746        4.1468562913       23.4295216327
  C        -9.7833323942        1.5038493427       21.0120596822
  C       -10.8883441734        2.0111665023       23.1195517109
  C       -11.6555756619        2.8661961361       23.9527666592
  H       -12.6571492859        4.6349990556       24.1360294090
  H        -9.3892159994        0.6424693692       21.4291428346
  H       -10.5710620988        1.1325727728       23.4776992199
  H       -12.0531409538        2.6544361728       24.9287281415
  C        -1.0834315901        6.0624901119        2.3133828503
  C        -0.2318791647        6.9806224049        1.6280774124
  C         0.1645699565        6.6509110851        0.3016902584
  C         0.9150591757        7.5624333067       -0.5098761929
  C        -1.3684351091        4.8245872531        1.8146434425
  H        -1.5953727004        6.3134569721        3.2910961639
  H         0.0043881396        7.8204251589        2.0215573253
  H         1.0655843158        8.5248908458       -0.2688945484
  H        -1.9753153255        4.1199546265        2.3852867832
  C        -0.0406188206        5.3534183180       -0.1931229810
  C         1.4506107752        7.1989396481       -1.6991756233
  C        -0.8506526009        4.4554103688        0.5816747635
  C         0.4730732408        5.0245038800       -1.4917503944
  C         1.2391852731        5.9061839176       -2.2432859195
  H         1.8843751087        7.9957725255       -2.4225360137
  H        -1.0977247656        3.5532515569        0.1856455372
  H         0.3570726049        4.1135133850       -1.9280536150
  H         1.6033064067        5.7866529454       -3.3379219964
  C         4.8713286984        8.7300692927       -2.2971544258
  C         4.1940209720        9.7349214480       -1.6193270196
  C         3.7912903700        9.4485218763       -0.2732341095
  C         3.0139813318       10.3476652345        0.4443631301
  C         5.2502785276        7.5424387517       -1.7536316649
  H         5.1281313292        8.8498366660       -3.3706691255
  H         3.8985652414       10.6531547805       -2.0267286926
  H         2.7310708431       11.2320988534        0.0978962170
  H         5.7286305422        6.8678827678       -2.3181022823
  C         4.1873928987        8.2603005051        0.3434043666
  C         2.7059433235       10.1414535856        1.8094123348
  C         4.9536118336        7.2897286569       -0.4196725047
  C         3.8774991457        7.9789942629        1.7139409249
  C         3.1620526289        8.9427838662        2.4187263421
  H         2.2653715388       10.8207892066        2.4980836661
  H         5.2594242341        6.5031611422        0.0457382847
  H         4.2111698276        7.2109837066        2.2400585767
  H         2.9151269719        8.8405988830        3.5632976229
  C        -6.0292616609        6.0249605089        9.5161538223
  C        -5.3618157098        6.9888528787        8.7362358133
  C        -4.9412388987        6.5874490051        7.4370581669
  C        -4.1628200434        7.5154133821        6.6391665204
  C        -6.3371849641        4.7214882352        9.0448221006
  H        -6.2676646596        6.4280177373       10.4300106150
  H        -5.2188715943        7.9467871498        8.9650870924
  H        -3.8963845711        8.4187954738        7.0252627262
  H        -6.7526986314        4.1093885198        9.7027957168
  C        -5.2879222664        5.3098341264        6.8964612503
  C        -3.6576155638        7.1483764607        5.3788323720
  C        -6.0044583598        4.4361764570        7.7125511917
  C        -4.8388866648        5.0497387286        5.5816793160
  C        -4.0735985868        5.9239070351        4.8913276215
  H        -3.1405319622        7.8420260538        4.7492553257
  H        -6.3073644288        3.5712641493        7.2923195954
  H        -5.2189459530        4.2854476129        5.1493822782
  H        -3.7396900160        5.7535354181        3.8405399991
  C         0.0837268530        9.1291653912        4.8364396822
  C        -0.6539275482       10.0096854467        5.6118252147
  C        -1.0847435034        9.6414765217        6.9663617904
  C        -1.8705434421       10.5354441804        7.7312910608
  C         0.4345078945        7.9408385060        5.4071359297
  H         0.4212083311        9.3589239657        3.8220932247
  H        -0.9086145874       10.9519325961        5.2431219858
  H        -2.1349031446       11.4887672276        7.4193202431
  H         1.0302664287        7.1843540044        4.8454432226
  C        -0.7959539867        8.3765896586        7.4804807812
  C        -2.2575138295       10.2038890193        8.9878211564
  C         0.0751828142        7.5373871453        6.6583458116
  C        -1.3194117163        7.9908245437        8.6937622484
  C        -2.0151234580        8.8642439733        9.5343613051
  H        -2.7806142437       10.9359048069        9.7230692634
  H         0.3411217977        6.5929724997        7.0536916870
  H        -1.0695232233        7.1510930226        9.1704987762
  H        -2.2762069258        8.6024286599       10.5654510156
  C       -10.9964895948        6.0104153200       16.7043495789
  C       -10.3823680966        6.9983935662       15.9138312539
  C        -9.8852718437        6.6000049410       14.6425108251
  C        -9.0350638680        7.4848462965       13.9068811047
  C       -11.2359280935        4.6904985458       16.2134222755
  H       -11.3843739158        6.2348586672       17.6066666100
  H       -10.2475888115        7.8670272665       16.2561300047
  H        -8.7745345684        8.4160786382       14.2928777170
  H       -11.6910922220        4.0567823146       16.8671663939
  C       -10.1633605269        5.3119309962       14.1063134228
  C        -8.6891795944        7.1339038029       12.5751249571
  C       -10.8735771008        4.3862593507       14.8873061950
  C        -9.7091457422        4.9426989285       12.8011102869
  C        -9.0667960399        5.9030084344       12.0280442394
  H        -8.3114843308        7.7792235518       11.8263931504
  H       -11.0616742079        3.5025936482       14.5232668733
  H       -10.0328239209        4.0685881937       12.4569462011
  H        -8.7234178482        5.8588993418       10.9894041394
  C        -4.7855943512        9.0398738376       11.7550592958
  C        -5.5620482790        9.9336983811       12.4940098507
  C        -5.9398159217        9.5991236917       13.8214000854
  C        -6.6749911448       10.5169929615       14.5998137673
  C        -4.4746690444        7.7557900387       12.2283007231
  H        -4.6498700197        9.3521122959       10.8027046822
  H        -5.9985939111       10.7952223686       12.0764998239
  H        -6.8996025342       11.4166661822       14.2086700914
  H        -4.0269904608        7.0744712850       11.6182032892
  C        -5.5846698376        8.3792129364       14.3578467348
  C        -7.0979213563       10.1733455134       15.9055485318
  C        -4.9185385001        7.4071109419       13.5346603897
  C        -5.8924735696        8.0738315289       15.7279460543
  C        -6.6345945189        8.9593464121       16.4432201325
  H        -7.6068715285       10.8102812281       16.6826972995
  H        -4.7469566009        6.5188691490       13.9779735771
  H        -5.5643217044        7.2812552559       16.1948668985
  H        -6.9266762751        8.7917276784       17.5600081807
  C       -15.5304088878        6.0282810631       23.7762676583
  C       -14.8533931141        6.8893895922       22.8735387455
  C       -14.5771704602        6.3797167931       21.5831700526
  C       -13.8057995833        7.1854200807       20.6911259230
  C       -16.0363285976        4.7851212130       23.3375727687
  H       -15.8461809322        6.2702237747       24.7350765860
  H       -14.4674590815        7.8174141230       23.2069056886
  H       -13.3934517156        8.0600998275       21.0067223095
  H       -16.4783159467        4.2345719462       24.0686460538
  C       -15.0309635250        5.1293992805       21.1769072156
  C       -13.5548879697        6.7299780419       19.4092415127
  C       -15.8467284327        4.3284583822       22.0698212925
  C       -14.7540313876        4.6047254837       19.8443498324
  C       -13.9825635884        5.4526636033       18.9576082344
  H       -13.0651820726        7.2887130372       18.7493347495
  H       -16.2300589752        3.4932123978       21.7412912809
  H       -15.0711007281        3.7438744765       19.5328442113
  H       -13.6283653415        5.2440630595       17.9913745693
  C        -9.7364517038        9.1125348609       19.1857278410
  C       -10.4734065545        9.9974232977       19.9648157874
  C       -10.9353611332        9.5502106012       21.2659187724
  C       -11.7315701097       10.4346518893       22.0251630090
  C        -9.4553208060        7.7828248909       19.6569899084
  H        -9.2617641361        9.2026457112       18.3048920093
  H       -10.6363549507       10.9204534500       19.6335828333
  H       -11.9123464906       11.3790871642       21.5672213963
  H        -8.9345947031        7.2740702276       18.8967915282
  C       -10.6386027190        8.3203464984       21.7190303832
  C       -12.3048475584       10.0223582794       23.2022451109
  C        -9.9086672833        7.3777428923       20.9293967952
  C       -11.0672945773        7.9007881699       22.9943026175
  C       -11.9506618183        8.7596700566       23.7123166092
  H       -12.8742272758       10.5840793752       23.9001541950
  H        -9.7353955308        6.4467917468       21.2168422744
  H       -10.8151481084        7.0060185984       23.3947641343
  H       -12.3087367658        8.4636089272       24.6612217498
  C        -0.9798122026       12.0945765811        2.3136740695
  C        -0.2516104284       12.9284812488        1.4298415316
  C        -0.0259914071       12.4927555274        0.1372349876
  C         0.5733656427       13.3928480932       -0.8079115484
  C        -1.4258211395       10.8166710651        1.9195135548
  H        -1.2864015142       12.3887577733        3.3596276942
  H        -0.0340830676       13.8256817512        1.7893653825
  H         0.7582883378       14.3659628292       -0.5180170336
  H        -2.0057659561       10.2733644397        2.6714132588
  C        -0.3235936585       11.1801472676       -0.2413631403
  C         0.8399781635       12.9802105221       -2.0246171204
  C        -1.0776578961       10.3097683437        0.6137255076
  C        -0.0221249910       10.7669036272       -1.6256194776
  C         0.5635957236       11.6832968061       -2.4848276251
  H         1.3028192970       13.6675696349       -2.7133538054
  H        -1.4366411918        9.3920686081        0.3518254027
  H        -0.2907957948        9.8019688439       -1.8660040271
  H         0.9170866917       11.3384245646       -3.3979884177
  C         4.8721572379       15.0117362473       -2.4637213269
  C         4.1995658582       15.8877115596       -1.6581834652
  C         3.6909561320       15.4050182681       -0.3649141806
  C         2.9939497089       16.2984789408        0.4802437073
  C         5.1163956822       13.7576463283       -2.0847719158
  H         5.1690951197       15.2136294292       -3.4698497449
  H         3.9575563459       16.8359123787       -1.8559247079
  H         2.7597405041       17.2236013922        0.2540395319
  H         5.4846281058       13.0831301907       -2.7382726269
  C         4.0519121984       14.1815399959        0.0765667484
  C         2.5593150836       15.8862892795        1.7803901228
  C         4.6983135590       13.2806489345       -0.8204095767
  C         3.7894311752       13.7599014423        1.4039406702
  C         3.0744079053       14.6551660658        2.2734645070
  H         2.0426490946       16.3249281207        2.5444308067
  H         5.0183713091       12.3451793673       -0.3486858741
  H         3.9358058539       12.8272941471        1.7095082461
  H         2.7240402949       14.3577253186        3.3493884750
  C        -5.7742799496       11.9321843561        9.3308026461
  C        -5.0136560646       12.8378282496        8.5733265389
  C        -4.7101388734       12.5285264013        7.2586607985
  C        -3.9473041352       13.4430415754        6.4919592875
  C        -6.2185889020       10.6444360353        8.7832961751
  H        -6.1537771264       12.1904665736       10.3898839777
  H        -4.6522656002       13.6340036816        9.0546455027
  H        -3.6286767090       14.3029637026        6.8960222439
  H        -6.8974444574       10.0513684078        9.4814778769
  C        -5.0300578980       11.2595213335        6.7301716847
  C        -3.5061607145       13.0738231219        5.1800142971
  C        -5.8171305842       10.3363127245        7.4990967318
  C        -4.6638808932       10.9488758772        5.3198920177
  C        -3.8500789230       11.8616332158        4.6440870352
  H        -2.9180117102       13.7283861631        4.5831210923
  H        -6.1622255263        9.4869355424        7.1323067599
  H        -4.9152506835       10.0800629641        4.9286562500
  H        -3.3971349727       11.5426941655        3.7928718432
  C         0.0706168801       15.1404885126        4.8054267195
  C        -0.5576339856       16.0549861315        5.6088077896
  C        -0.9779099896       15.6495461720        6.8915394480
  C        -1.6824236239       16.5986397502        7.6459461071
  C         0.3281324009       13.8721061286        5.3089988335
  H         0.2394790037       15.5303669023        3.7912964438
  H        -0.7719722615       16.9921612861        5.2566321262
  H        -2.1527574567       17.4646141868        7.3703367083
  H         0.8719622371       13.2104732380        4.7491910748
  C        -0.7009088865       14.3726823459        7.3824641085
  C        -2.1370561141       16.2605231277        8.9143053290
  C         0.0222394633       13.4912599323        6.5803345656
  C        -1.1421138924       14.0127061059        8.7074888248
  C        -1.8439091321       14.9447511120        9.4404700397
  H        -2.7442667791       16.9633779677        9.5506630380
  H         0.2271982715       12.4637088778        6.9426146775
  H        -0.8648948386       13.1700367887        9.2303474042
  H        -2.1742120698       14.8306890013       10.4534190344
  C       -10.7117646247       12.0528176869       16.4742983731
  C       -10.0000113163       12.9666300539       15.6531500111
  C        -9.6314759516       12.5558414294       14.3441963462
  C        -8.8676099856       13.3969462425       13.4488722153
  C       -11.1747721996       10.8510185103       16.0378776180
  H       -11.1110563134       12.2755544816       17.4411254713
  H        -9.7533636793       13.8668411897       15.9502725287
  H        -8.5040485555       14.3155466228       13.8249716972
  H       -11.7492311702       10.2298234276       16.6725709197
  C        -9.9331982176       11.2750993326       13.8756223008
  C        -8.4254615035       12.9610240387       12.2495234718
  C       -10.8457116961       10.4327033997       14.6697778274
  C        -9.3613242703       10.8050023774       12.6564470858
  C        -8.6234652639       11.6366689669       11.8562205525
  H        -7.8530616743       13.4786856334       11.5539673182
  H       -11.1231192846        9.5220320827       14.2928705024
  H        -9.5406062333        9.8134932767       12.4061298583
  H        -8.1358417990       11.3668365953       10.8509329868
  C        -4.6923348092       15.1468584948       11.7837053560
  C        -5.4785621411       15.9254203059       12.6494933517
  C        -5.8084212106       15.3898864618       13.9478835700
  C        -6.5678068878       16.1714195029       14.8150215071
  C        -4.3767227643       13.8643812788       12.1221912570
  H        -4.1698535004       15.4514789745       10.9400522738
  H        -5.6871224719       16.9811470722       12.4597632081
  H        -6.7814606033       17.0550718383       14.5288662052
  H        -3.8680623216       13.4194008776       11.4031245249
  C        -5.5487566920       14.0448969294       14.2156764633
  C        -7.0771512488       15.6440361105       15.9918355482
  C        -4.8038940588       13.2895849838       13.3090333372
  C        -5.9811614121       13.4990548190       15.4823443551
  C        -6.8208416735       14.2862960863       16.3668951351
  H        -7.6606527704       16.1958611033       16.7688728544
  H        -4.5783772538       12.2680884050       13.5360754916
  H        -5.6700014862       12.5942253809       15.8511422699
  H        -7.1755958884       13.9253642621       17.4418338915
  C       -16.0791001589       11.8984779032       23.6667067174
  C       -15.3373053700       12.8043020184       22.9834310771
  C       -14.7384682098       12.4331544114       21.7279243615
  C       -14.0038571565       13.3419692267       20.8935578209
  C       -16.2086787224       10.5284283101       23.2618564219
  H       -16.5838687887       12.1757839682       24.6052106317
  H       -15.3380459123       13.7678252144       23.3781915371
  H       -13.8493848999       14.3489372017       21.2481032250
  H       -16.7646714734        9.9537152161       23.8837035326
  C       -14.9380280779       11.1159423359       21.2536208445
  C       -13.4823571304       12.9686783800       19.6718866540
  C       -15.6552513221       10.1841590447       22.0304512950
  C       -14.4904837837       10.7086353172       19.9746278574
  C       -13.7526933646       11.6478318135       19.2338310780
  H       -12.9923686059       13.5556276710       19.0728252847
  H       -15.8415233284        9.2329924852       21.7469827766
  H       -14.6624186925        9.8028077935       19.5932081821
  H       -13.4363309460       11.3171486577       18.2686736625
  C        -9.8201174848       14.7212412741       19.0279480278
  C       -10.5529800632       15.6719245951       19.7428344369
  C       -11.0105830817       15.3534081362       21.0945387479
  C       -11.7961526051       16.2660632847       21.8444109754
  C        -9.4206594013       13.5846474724       19.5909412987
  H        -9.4740598938       15.0271541912       18.0849673313
  H       -10.8601585728       16.6074930199       19.4525466423
  H       -12.0530131730       17.0887282269       21.3589041598
  H        -8.9324330609       12.9846009712       18.9323776896
  C       -10.5935289608       14.2098565714       21.7032919212
  C       -12.1537386574       16.0269773067       23.1555968736
  C        -9.7993284698       13.2896718161       20.9501984170
  C       -11.0241339283       13.9090188546       23.0349616463
  C       -11.7657083657       14.8416236657       23.7786570680
  H       -12.8037295880       16.6183438330       23.8104607123
  H        -9.5594659935       12.4152506303       21.3478745296
  H       -10.7872513019       13.0298393810       23.4894171622
  H       -12.1073765565       14.7682451196       24.8026083912
  C        -0.9244169398       18.1588229925        2.3717266497
  C        -0.1816751829       19.0243168025        1.5646830929
  C         0.1941721719       18.6010717709        0.2200236390
  C         0.9580976175       19.4578655307       -0.6357957581
  C        -1.2850274002       16.8871242011        1.8901335470
  H        -1.3587964610       18.3431669302        3.3567859696
  H         0.2192625024       19.8718965496        1.9786663193
  H         1.2139537528       20.3613788014       -0.2547595806
  H        -1.7767316776       16.3419710532        2.6620124509
  C        -0.2181828995       17.4032511668       -0.2885160064
  C         1.2145945827       19.1094094364       -1.9197107911
  C        -0.8829638497       16.4713618465        0.5571448593
  C         0.0797911260       17.0013483281       -1.6283916445
  C         0.7195924983       17.9189413038       -2.4854017901
  H         1.6619100971       19.8319185987       -2.5256892467
  H        -1.1272644228       15.5247309803        0.3697203580
  H        -0.2691164894       16.1661522935       -2.0048046105
  H         0.9223045295       17.6554418993       -3.5096614813
  C         5.1046128595       20.7739490748       -2.4955583545
  C         4.3169748337       21.6031288471       -1.7308585090
  C         3.9890577391       21.1778762497       -0.3972414213
  C         3.3331377563       22.1282441740        0.4404094684
  C         5.4830594736       19.4912482192       -2.0616238657
  H         5.5082379407       21.0663026959       -3.4222233276
  H         3.9981150914       22.5920558728       -1.9528251303
  H         3.2713280856       23.0615238081        0.0741363965
  H         5.9735644130       19.0094652366       -2.7089866554
  C         4.2926086757       19.9099550576        0.0578772144