#     Step Nr.          Time[fs]        Kin.[a.u.]          Temp[K]            Pot.[a.u.]        Cons Qty[a.u.]        UsedTime[s]
         0            0.000000         0.393255336       335.168867385         0.327895703         0.721151039         0.000000000
         1            0.100000         0.393145287       335.075072660         0.328005924         0.721151210         0.052355111
         2            0.200000         0.393076889       335.016777842         0.328074430         0.721151319         0.027449392
         3            0.300000         0.393051753       334.995354640         0.328099615         0.721151368         0.025997251
         4            0.400000         0.393070548       335.011373158         0.328080811         0.721151358         0.026244283
         5            0.500000         0.393133032       335.064627995         0.328018261         0.721151293         0.024296976
         6            0.600000         0.393238099       335.154175952         0.327913078         0.721151176         0.022613536
         7            0.700000         0.393383832       335.278383544         0.327767180         0.721151012         0.022126347
         8            0.800000         0.393567566       335.434978485         0.327583239         0.721150805         0.009908836
         9            0.900000         0.393785954       335.621109295         0.327364606         0.721150560         0.024684717
        10            1.000000         0.394035049       335.833411089         0.327115233         0.721150282         0.023632298
        11            1.100000         0.394310380       336.068073655         0.326839596         0.721149976         0.028555975
        12            1.200000         0.394607037       336.320912925         0.326542611         0.721149648         0.034728829
        13            1.300000         0.394919762       336.587445823         0.326229543         0.721149305         0.024778530
        14            1.400000         0.395243033       336.862968011         0.325905917         0.721148951         0.023457123
        15            1.500000         0.395571164       337.142631891         0.325577428         0.721148592         0.022340825
        16            1.600000         0.395898391       337.421524657         0.325249844         0.721148234         0.021968349
        17            1.700000         0.396218962       337.694745287         0.324928922         0.721147883         0.010903156
        18            1.800000         0.396527229       337.957479083         0.324620315         0.721147544         0.025028004
        19            1.900000         0.396817728       338.205069698         0.324329494         0.721147222         0.026885220
        20            2.000000         0.397085259       338.433084818         0.324061662         0.721146921         0.025909647
        21            2.100000         0.397324959       338.637379672         0.323821686         0.721146645         0.025021934
        22            2.200000         0.397532378       338.814160928         0.323614022         0.721146400         0.010424420
        23            2.300000         0.397703546       338.960046697         0.323442642         0.721146189         0.013531584
        24            2.400000         0.397835055       339.072130653         0.323310962         0.721146017         0.009957656
        25            2.500000         0.397924126       339.148044869         0.323221763         0.721145889         0.011863971
        26            2.600000         0.397968668       339.186008266         0.323177138         0.721145807         0.014031918
        27            2.700000         0.397967310       339.184850412         0.323178459         0.721145769         0.009962433
        28            2.800000         0.397919380       339.144000728         0.323226392         0.721145773         0.012387135
        29            2.900000         0.397824869       339.063449589         0.323320944         0.721145813         0.025223126
        30            3.000000         0.397684375       338.943706744         0.323461515         0.721145890         0.026083791
        31            3.100000         0.397499077       338.785779085         0.323646925         0.721146002         0.027709505
        32            3.200000         0.397270731       338.591161424         0.323875418         0.721146149         0.025177287
        33            3.300000         0.397001663       338.361835884         0.324144669         0.721146331         0.010306077
        34            3.400000         0.396694770       338.100273746         0.324451778         0.721146548         0.012309849
        35            3.500000         0.396353510       337.809420051         0.324793286         0.721146796         0.012461275
        36            3.600000         0.395981863       337.492667232         0.325165211         0.721147073         0.008229067
        37            3.700000         0.395584283       337.153812641         0.325563091         0.721147374         0.013010096
        38            3.800000         0.395165620       336.796989557         0.325982071         0.721147692         0.012037609
        39            3.900000         0.394731015       336.426578207         0.326417003         0.721148017         0.010988299
        40            4.000000         0.394285776       336.047104401         0.326862569         0.721148345         0.009997688
        41            4.100000         0.393835265       335.663136654         0.327313401         0.721148666         0.014046681
        42            4.200000         0.393384768       335.279181497         0.327764203         0.721148972         0.010503426
        43            4.300000         0.392939384       334.899583209         0.328209872         0.721149256         0.010293054
        44            4.400000         0.392503911       334.528432613         0.328645603         0.721149514         0.027447461
        45            4.500000         0.392082760       334.169488469         0.329066979         0.721149739         0.024954709
        46            4.600000         0.391679873       333.826110819         0.329470056         0.721149929         0.013684597
        47            4.700000         0.391298672       333.501215508         0.329851412         0.721150084         0.025912794
        48            4.800000         0.390942037       333.197257838         0.330208168         0.721150205         0.025716829
        49            4.900000         0.390612330       332.916251033         0.330537968         0.721150298         0.027344116
        50            5.000000         0.390311462       332.659822903         0.330838911         0.721150373         0.024155145
        51            5.100000         0.390040988       332.429299675         0.331109451         0.721150439         0.026274641
        52            5.200000         0.389802227       332.225805691         0.331348278         0.721150505         0.011470372
        53            5.300000         0.389596364       332.050350176         0.331554212         0.721150576         0.009489253
        54            5.400000         0.389424500       331.903871208         0.331726151         0.721150651         0.013783478
        55            5.500000         0.389287632       331.787219881         0.331863089         0.721150722         0.011176102
        56            5.600000         0.389186570       331.701085326         0.331964207         0.721150777         0.011818209
        57            5.700000         0.389121800       331.645881942         0.332029006         0.721150806         0.011131165
        58            5.800000         0.389093341       331.621626843         0.332057456         0.721150797         0.012800165
        59            5.900000         0.389100619       331.627830153         0.332050124         0.721150744         0.008953433
        60            6.000000         0.389142375       331.663418055         0.332008267         0.721150642         0.009031500
        61            6.100000         0.389216614       331.726691248         0.331933876         0.721150490         0.008367387
        62            6.200000         0.389320599       331.815316995         0.331829691         0.721150289         0.012527030
        63            6.300000         0.389450877       331.926352142         0.331699168         0.721150044         0.011791148
        64            6.400000         0.389603331       332.056288252         0.331546429         0.721149761         0.023077352
        65            6.500000         0.389773280       332.201134625         0.331376175         0.721149455         0.021971938
        66            6.600000         0.389956504       332.357294811         0.331193202         0.721149706         0.009964299
        67            6.700000         0.390146187       332.518960462         0.331006037         0.721152224         0.019637277
        68            6.800000         0.390335173       332.680032013         0.330816791         0.721151964         0.013213405
        69            6.900000         0.390517995       332.835849719         0.330633577         0.721151572         0.011894808
        70            7.000000         0.390688523       332.981189325         0.330462646         0.721151168         0.009303174
        71            7.100000         0.390840306       333.110553137         0.330310460         0.721150766         0.014026207
        72            7.200000         0.390966917       333.218463051         0.330183454         0.721150371         0.017148044
        73            7.300000         0.391062068       333.299559193         0.330087924         0.721149991         0.023207076
        74            7.400000         0.391119701       333.348679424         0.330029930         0.721149631         0.025107890
        75            7.500000         0.391134081       333.360936010         0.330015214         0.721149295         0.009126596
        76            7.600000         0.391099885       333.331790830         0.330049105         0.721148990         0.023128725
        77            7.700000         0.391012277       333.257123129         0.330136443         0.721148720         0.024806692
        78            7.800000         0.390866984       333.133290641         0.330281505         0.721148489         0.018547110
        79            7.900000         0.390660356       332.957183381         0.330487944         0.721148300         0.011485317
        80            8.000000         0.390389429       332.726274279         0.330758727         0.721148157         0.011552561
        81            8.100000         0.390051972       332.438661489         0.331096090         0.721148062         0.009093227
        82            8.200000         0.389646524       332.093100839         0.331501493         0.721148017         0.011071983
        83            8.300000         0.389172430       331.689033610         0.331975595         0.721148024         0.012363041
        84            8.400000         0.388629856       331.226601971         0.332518227         0.721148083         0.020914038
        85            8.500000         0.388019803       330.706657927         0.333128391         0.721148195         0.024977840
        86            8.600000         0.387344103       330.130763061         0.333804253         0.721148356         0.024031945
        87            8.700000         0.386605407       329.501177641         0.334543161         0.721148568         0.012868264
        88            8.800000         0.385807168       328.820843391         0.335341660         0.721148828         0.010419468
        89            8.900000         0.384953590       328.093344981         0.336195539         0.721149129         0.009062425
        90            9.000000         0.384049551       327.322838573         0.337099908         0.721149459         0.012647345
        91            9.100000         0.383100244       326.513750853         0.338049462         0.721149707         0.011894776
        92            9.200000         0.382128383       325.685440240         0.339016173         0.721144556         0.025647051
        93            9.300000         0.381080321       324.792183669         0.340052980         0.721133300         0.021007223
        94            9.400000         0.380034817       323.901107685         0.341098634         0.721133450         0.022868962
        95            9.500000         0.378974032       322.997007758         0.342159887         0.721133918         0.010195514
        96            9.600000         0.377905190       322.086041450         0.343229237         0.721134427         0.017232240
        97            9.700000         0.376836497       321.175201269         0.344298453         0.721134950         0.025595106
        98            9.800000         0.375776397       320.271685152         0.345359082         0.721135478         0.019506196
        99            9.900000         0.374733416       319.382759582         0.346402590         0.721136006         0.024483316
       100           10.000000         0.373716051       318.515666670         0.347420474         0.721136525         0.025489812
       101           10.100000         0.372732673       317.677540106         0.348404357         0.721137030         0.009787778
       102           10.200000         0.371791428       316.875323218         0.349346088         0.721137516         0.012698612
       103           10.300000         0.370900148       316.115691550         0.350237829         0.721137977         0.010948458
       104           10.400000         0.370066265       315.404978696         0.351072142         0.721138407         0.008106161
       105           10.500000         0.369296726       314.749105272         0.351842077         0.721138803         0.012400399
       106           10.600000         0.368597914       314.153512898         0.352541245         0.721139159         0.011621703
       107           10.700000         0.367975584       313.623105172         0.353163886         0.721139470         0.010729219
       108           10.800000         0.367434792       313.162192009         0.353704943         0.721139735         0.012359845
       109           10.900000         0.366979840       312.774439645         0.354160111         0.721139951         0.011839299
       110           11.000000         0.366614232       312.462833840         0.354525883         0.721140115         0.010571038
       111           11.100000         0.366340634       312.229648497         0.354799590         0.721140224         0.009683081
       112           11.200000         0.366160850       312.076419686         0.354979429         0.721140279         0.024172870
       113           11.300000         0.366075797       312.003929501         0.355064481         0.721140277         0.024993301
       114           11.400000         0.366085499       312.012198651         0.355054721         0.721140220         0.011605568
       115           11.500000         0.366189089       312.100487579         0.354951019         0.721140108         0.025072717
       116           11.600000         0.366384818       312.267305905         0.354755125         0.721139942         0.023819882
       117           11.700000         0.366670077       312.510430492         0.354469647         0.721139724         0.024968183
       118           11.800000         0.367041430       312.826932170         0.354098026         0.721139456         0.010573407
       119           11.900000         0.367494651       313.213209148         0.353644492         0.721139143         0.010200075
       120           12.000000         0.368024773       313.665028485         0.353114014         0.721138787         0.012451602
       121           12.100000         0.368626147       314.177575969         0.352512245         0.721138392         0.009842357
       122           12.200000         0.369292509       314.745511075         0.351845454         0.721137962         0.011966807
       123           12.300000         0.370017039       315.363023732         0.351120463         0.721137503         0.011240675
       124           12.400000         0.370792445       316.023896861         0.350344573         0.721137018         0.015650178
       125           12.500000         0.371611034       316.721574549         0.349525478         0.721136512         0.024835984
       126           12.600000         0.372464794       317.449228653         0.348671198         0.721135992         0.024387378
       127           12.700000         0.373345477       318.199828706         0.347789983         0.721135460         0.022729073
       128           12.800000         0.374244678       318.966211852         0.346890243         0.721134921         0.021866421
       129           12.900000         0.375153910       319.741143848         0.345980472         0.721134382         0.007950275
       130           13.000000         0.376064672       320.517380253         0.345069173         0.721133845         0.019426516
       131           13.100000         0.376968522       321.287725495         0.344164790         0.721133312         0.010002738
       132           13.200000         0.377857131       322.045080883         0.343275655         0.721132786         0.011654250
       133           13.300000         0.378722331       322.782484944         0.342409938         0.721132269         0.009385124
       134           13.400000         0.379556150       323.493143743         0.341575610         0.721131761         0.008991846
       135           13.500000         0.380350838       324.170450473         0.340780423         0.721131261         0.012771554
       136           13.600000         0.381098880       324.808001606         0.340031891         0.721130771         0.017602053
       137           13.700000         0.381793019       325.399612038         0.339337271         0.721130290         0.026032513
       138           13.800000         0.382426297       325.939350052         0.338703529         0.721129826         0.023873531
       139           13.900000         0.382992144       326.421617491         0.338137247         0.721129391         0.022517505
       140           14.000000         0.383484563       326.841303584         0.337644443         0.721129007         0.024196759
       141           14.100000         0.383898438       327.194046119         0.337230273         0.721128711         0.011703431
       142           14.200000         0.384229961       327.476600812         0.336898583         0.721128544         0.017508228
       143           14.300000         0.384477122       327.687254738         0.336651417         0.721128540         0.023085457
       144           14.400000         0.384640105       327.826163493         0.336488608         0.721128712         0.025821745
       145           14.500000         0.384721436       327.895481420         0.336407612         0.721129048         0.010813834
       146           14.600000         0.384725812       327.899211386         0.336403696         0.721129508         0.012739594
       147           14.700000         0.384659667       327.842836887         0.336470384         0.721130051         0.010250354
       148           14.800000         0.384530641       327.732868774         0.336599996         0.721130637         0.012196999
       149           14.900000         0.384347088       327.576427444         0.336784150         0.721131238         0.011501080
       150           15.000000         0.384117710       327.380930211         0.337014128         0.721131838         0.010113564
       151           15.100000         0.383851322       327.153889558         0.337281105         0.721132427         0.011526318
       152           15.200000         0.383556711       326.902794899         0.337576291         0.721133003         0.011851084
       153           15.300000         0.383242560       326.635045678         0.337891002         0.721133562         0.010679127
       154           15.400000         0.382917390       326.357905381         0.338216713         0.721134103         0.010927969
       155           15.500000         0.382589522       326.078465787         0.338545104         0.721134626         0.011216726
       156           15.600000         0.382267035       325.803612174         0.338868092         0.721135126         0.025073484
       157           15.700000         0.381957716       325.539981953         0.339177887         0.721135603         0.008322128
       158           15.800000         0.381669009       325.293918448         0.339467044         0.721136053         0.026009242
       159           15.900000         0.381407952       325.071422110         0.339728520         0.721136472         0.023753643
       160           16.000000         0.381181129       324.878102309         0.339955729         0.721136858         0.024815959
       161           16.100000         0.380994607       324.719130760         0.340142602         0.721137209         0.022811940
       162           16.200000         0.380853904       324.599210445         0.340283623         0.721137527         0.022287027
       163           16.300000         0.380764045       324.522623861         0.340373798         0.721137842         0.008356576
       164           16.400000         0.380730913       324.494385755         0.340407889         0.721138801         0.023084297
       165           16.500000         0.380825997       324.575425057         0.340397111         0.721223107         0.029967276
       166           16.600000         0.380919636       324.655233328         0.340310775         0.721230412         0.033931991
       167           16.700000         0.381063186       324.777579948         0.340167426         0.721230612         0.021850689
       168           16.800000         0.381269421       324.953352274         0.339961226         0.721230647         0.008327530
       169           16.900000         0.381538989       325.183103700         0.339691629         0.721230618         0.021351276
       170           17.000000         0.381871417       325.466430084         0.339359132         0.721230549         0.021747939
       171           17.100000         0.382265743       325.802511094         0.338964830         0.721230573         0.008271139
       172           17.200000         0.382750599       326.215751120         0.338501830         0.721252429         0.021543657
       173           17.300000         0.383151072       326.557070839         0.338010919         0.721161991         0.024182287
       174           17.400000         0.383716990       327.039399463         0.337445042         0.721162032         0.017219851
       175           17.500000         0.384329704       327.561611270         0.336832047         0.721161751         0.012121509
       176           17.600000         0.384985039       328.120148835         0.336176379         0.721161418         0.022579488
       177           17.700000         0.385677623       328.710433283         0.335483447         0.721161070         0.023520257
       178           17.800000         0.386401734       329.327588327         0.334759004         0.721160738         0.024890757
       179           17.900000         0.387151793       329.966858455         0.334008707         0.721160500         0.022102801
       180           18.000000         0.387923433       330.624522534         0.333237134         0.721160567         0.011446264
       181           18.100000         0.388716210       331.300200655         0.332445192         0.721161402         0.020599465
       182           18.200000         0.389298164       331.796196017         0.331864031         0.721162195         0.024181011
       183           18.300000         0.390115299       332.492635148         0.331047095         0.721162394         0.022357776
       184           18.400000         0.390896601       333.158533101         0.330266129         0.721162730         0.008814033
       185           18.500000         0.391644012       333.795546378         0.329518670         0.721162682         0.021896091
       186           18.600000         0.392356131       334.402480350         0.328806293         0.721162424         0.021659545
       187           18.700000         0.393028759       334.975757097         0.328133331         0.721162090         0.008094241
       188           18.800000         0.393656582       335.510846764         0.327505158         0.721161740         0.024274050
       189           18.900000         0.394234063       336.003029472         0.326927339         0.721161402         0.024726127
       190           19.000000         0.394755862       336.447755045         0.326405227         0.721161089         0.021531824
       191           19.100000         0.395217055       336.840826708         0.325943756         0.721160810         0.029808395
       192           19.200000         0.395613261       337.178510592         0.325547310         0.721160571         0.028428203
       193           19.300000         0.395940727       337.457607958         0.325219648         0.721160376         0.023453449
       194           19.400000         0.396196375       337.675495061         0.324963848         0.721160223         0.023851586
       195           19.500000         0.396377826       337.830144314         0.324782288         0.721160114         0.022017010
       196           19.600000         0.396483405       337.920128667         0.324676642         0.721160047         0.024823699
       197           19.700000         0.396512106       337.944589952         0.324647911         0.721160017         0.009216895
       198           19.800000         0.396463509       337.903170952         0.324696503         0.721160012         0.023425632
       199           19.900000         0.396337646       337.795898702         0.324822370         0.721160016         0.021428290
       200           20.000000         0.396134774       337.622992528         0.325025234         0.721160008         0.026578441
