 # Version information for this restart file 
 # current date 2021-01-14 05:47:42.540
 # current working dir /scratch/sgiannini/FOB-SH-REGTESTS_/32-XXXX_code_extension_V2/run-fssh-3NAP-3ANT-3FF-FE-CT-CR-C-inter-FDB
 # Program compiled at                              Wed  6 Jan 14:38:30 GMT 2021
 # Program compiled on                                   bulstake.phys.ucl.ac.uk
 # Program compiled for                                                    local
 # Source code revision number                                       git:3649ac3
 &GLOBAL
   BLACS_GRID  SQUARE
   PREFERRED_FFT_LIBRARY  FFTW3
   PRINT_LEVEL  LOW
   PROGRAM_NAME  CP2K
   PROJECT_NAME run
   RUN_TYPE  MD
 &END GLOBAL
 &MOTION
   &MD
     ENSEMBLE  NVE
     STEPS  200
     TIMESTEP     9.9999999999999992E-02
     STEP_START_VAL  200
     TIME_START_VAL     2.0000000000000071E+01
     ECONS_START_VAL     7.2115103948968773E-01
     TEMPERATURE     3.0000000000000000E+02
     &THERMOSTAT
       REGION  GLOBAL
       &NOSE
         LENGTH  3
         YOSHIDA  3
         TIMECON     9.9999999999999989E+02
         MTS  2
       &END NOSE
     &END THERMOSTAT
     &AVERAGES  T
       &RESTART_AVERAGES
         ITIMES_START  1
         AVECPU     1.7870085390750311E-02
         AVEHUGONIOT     0.0000000000000000E+00
         AVETEMP_BARO     0.0000000000000000E+00
         AVEPOT     3.3513442846255720E-01
         AVEKIN     3.8601462988068747E-01
         AVETEMP     3.2899766217532880E+02
         AVEKIN_QM     0.0000000000000000E+00
         AVETEMP_QM     0.0000000000000000E+00
         AVEVOL     1.4576402699474397E+06
         AVECELL_A     1.1338356797313864E+02
         AVECELL_B     1.1338356797313864E+02
         AVECELL_C     1.1338356797313864E+02
         AVEALPHA     9.0000000000000043E+01
         AVEBETA     9.0000000000000043E+01
         AVEGAMMA     9.0000000000000043E+01
         AVE_ECONS    -2.5236507447228881E-03
         AVE_PRESS     0.0000000000000000E+00
         AVE_PXX     0.0000000000000000E+00
       &END RESTART_AVERAGES
     &END AVERAGES
     &PRINT
       &PROGRAM_RUN_INFO  LOW
       &END PROGRAM_RUN_INFO
     &END PRINT
   &END MD
   &CONSTRAINT
     &COLLECTIVE
       COLVAR  1
       INTERMOLECULAR  T
       TARGET     0.0000000000000000E+00
       &RESTRAINT
         K     5.0000000000000001E-03
       &END RESTRAINT
     &END COLLECTIVE
     &COLLECTIVE
       COLVAR  2
       INTERMOLECULAR  T
       TARGET     0.0000000000000000E+00
       &RESTRAINT
         K     5.0000000000000001E-03
       &END RESTRAINT
     &END COLLECTIVE
     &COLLECTIVE
       COLVAR  3
       INTERMOLECULAR  T
       TARGET     0.0000000000000000E+00
       &RESTRAINT
         K     5.0000000000000001E-03
       &END RESTRAINT
     &END COLLECTIVE
     &COLLECTIVE
       COLVAR  4
       INTERMOLECULAR  T
       TARGET     0.0000000000000000E+00
       &RESTRAINT
         K     5.0000000000000001E-03
       &END RESTRAINT
     &END COLLECTIVE
     &COLLECTIVE
       COLVAR  5
       INTERMOLECULAR  T
       TARGET     0.0000000000000000E+00
       &RESTRAINT
         K     5.0000000000000001E-03
       &END RESTRAINT
     &END COLLECTIVE
     &COLLECTIVE
       COLVAR  6
       INTERMOLECULAR  T
       TARGET     0.0000000000000000E+00
       &RESTRAINT
         K     5.0000000000000001E-03
       &END RESTRAINT
     &END COLLECTIVE
     &COLLECTIVE
       COLVAR  7
       INTERMOLECULAR  T
       TARGET     0.0000000000000000E+00
       &RESTRAINT
         K     5.0000000000000001E-03
       &END RESTRAINT
     &END COLLECTIVE
     &COLLECTIVE
       COLVAR  8
       INTERMOLECULAR  T
       TARGET     0.0000000000000000E+00
       &RESTRAINT
         K     5.0000000000000001E-03
       &END RESTRAINT
     &END COLLECTIVE
     &COLLECTIVE
       COLVAR  9
       INTERMOLECULAR  T
       TARGET     0.0000000000000000E+00
       &RESTRAINT
         K     5.0000000000000001E-03
       &END RESTRAINT
     &END COLLECTIVE
     &COLLECTIVE
       COLVAR  10
       INTERMOLECULAR  T
       TARGET     0.0000000000000000E+00
       &RESTRAINT
         K     5.0000000000000001E-03
       &END RESTRAINT
     &END COLLECTIVE
     &COLLECTIVE
       COLVAR  11
       INTERMOLECULAR  T
       TARGET     0.0000000000000000E+00
       &RESTRAINT
         K     5.0000000000000001E-03
       &END RESTRAINT
     &END COLLECTIVE
     &COLLECTIVE
       COLVAR  12
       INTERMOLECULAR  T
       TARGET     0.0000000000000000E+00
       &RESTRAINT
         K     5.0000000000000001E-03
       &END RESTRAINT
     &END COLLECTIVE
     &COLVAR_RESTART
           0.0000000000000000E+00
           0.0000000000000000E+00
           0.0000000000000000E+00
           0.0000000000000000E+00
           0.0000000000000000E+00
           0.0000000000000000E+00
           0.0000000000000000E+00
           0.0000000000000000E+00
           0.0000000000000000E+00
           0.0000000000000000E+00
           0.0000000000000000E+00
           0.0000000000000000E+00
     &END COLVAR_RESTART
   &END CONSTRAINT
   &PRINT
     &TRAJECTORY  LOW
       FORMAT  XMOL
       &EACH
         MD  200
       &END EACH
     &END TRAJECTORY
     &MIXED_ENERGIES  OFF
     &END MIXED_ENERGIES
     &RESTART  ON
       &EACH
         MD  200
       &END EACH
     &END RESTART
     &RESTART_HISTORY  OFF
     &END RESTART_HISTORY
   &END PRINT
 &END MOTION
 &MULTIPLE_FORCE_EVALS
   FORCE_EVAL_ORDER  1..4
   MULTIPLE_SUBSYS  T
 &END MULTIPLE_FORCE_EVALS
 &FORCE_EVAL
   METHOD  MIXED
   &MIXED
     MIXING_TYPE  ADIABATIC
     &ADIABATIC
       METHOD_PROPAGATION FSSH
       PRINT_MORE  T
       INITIALIZATION DIABATIC
       REPRESENTATION DIABATIC_BASIS
       ELECTRONIC_PARTIAL_STEP  5
       FIRST_DIABAT  1
       FIRST_ADIABAT  1
       SEED  641704875
       NUMBER_DIABATIC_STATES  13
       NUMBER_ORBITALS  1
       NUCLEAR_TIMESTEP     9.9999999999999992E-02
       CENTER_OF_MASS  T
       METHOD_COUPLING FROZEN_COUPLINGS
       &OPTIMIZATION
         DO_SPEEDUP_LJ  F
         DO_SPEEDUP_INTRA  F
         SURF_HOP_CHOICE TRIVIAL_HOP_CORRECT
         RK_PROPAGATION DIABATIC_RK_FAST
         REORDERING_STATES_USING_OVERLAP  T
       &END OPTIMIZATION
       &DECOHERENCE
         DECOHERENCE_CORRECTIONS DAMPING
         DECO_TIME FORCES_BASED
         SPURIOUS_TRANSFER_CORR  T
         EDC_C     1.0000000000000000E+00
         EDC_E0     0.0000000000000000E+00
         THRESHOLD_TAU_FORCES     9.9999999999999995E-21
         TEMPERATURE_FG_WIDTH     3.0000000000000000E+02
         DECOHERENCE_CRITERION     9.9999999999999995E-07
       &END DECOHERENCE
       &ENERGY_CONSERVATION
         METHOD_RESCALING NACV
         METHOD_ADIABATIC_NACV FAST
         METHOD_REVERSAL ALWAYS
       &END ENERGY_CONSERVATION
       &METHOD_SITE_ENERGIES
         MULTI_STATES  T
         BLOCK_TYPE CT-FE-CR
         &CT_BLOCK
C 6  1      -0.58339550E-01
C 6  1      -0.99845988E-01
C 6  1       0.12140408E+00
C 6  1      -0.10046501E+00
C 6  1      -0.59335682E-01
H 1  1       0.17155799E+00
H 1  1       0.17628283E+00
H 1  1       0.17678236E+00
H 1  1       0.17190822E+00
C 6  1       0.12140644E+00
C 6  1      -0.59358378E-01
C 6  1      -0.10029122E+00
C 6  1      -0.10012781E+00
C 6  1      -0.58011713E-01
H 1  1       0.17189684E+00
H 1  1       0.17672572E+00
H 1  1       0.17633935E+00
H 1  1       0.17147152E+00
C  6   1    -0.20949694E+00
C  6   1    -0.31212345E+00
C  6   1     0.25978083E+00
C  6   1    -0.61212683E+00
C  6   1     0.25537360E+00
C  6   1    -0.30923112E+00
C  6   1    -0.21247959E+00
H  1   1     0.11121255E+00
H  1   1     0.12280490E+00
H  1   1     0.17085595E+00
H  1   1     0.12225175E+00
H  1   1     0.11179799E+00
C  6   1     0.25909058E+00
C  6   1    -0.60734358E+00
C  6   1     0.25364958E+00
C  6   1    -0.31146740E+00
H  1   1     0.16986379E+00
C  6   1    -0.30795782E+00
C  6   1    -0.20951246E+00
H  1   1     0.12283089E+00
C  6   1    -0.21340590E+00
H  1   1     0.12221881E+00
H  1   1     0.11133373E+00
H  1   1     0.11208013E+00
           ADD_COULOMB_POTENTIAL  T
           DIELECTRIC_SCREENING     3.0000000000000000E+00
           N_DONOR_ATOMS  18
           N_ACCEPTOR_ATOMS  24
           INDEX_DONOR_MOLS  1..3
           INDEX_ACCEPTOR_MOLS  4..6
         &END CT_BLOCK
         &FE_BLOCK
           INDEX_EXC_MOLS  4..6
         &END FE_BLOCK
       &END METHOD_SITE_ENERGIES
       &FROZEN_COUPLINGS
1   1   0.0
1   2   0.001469972
1   4   0.002
2   2   0.0
2   3   0.001469972
2   5   0.002
3   3   0.0
3   6   0.002
4   4   0.0
4   5   0.001469972
4   7   0.002
5   5   0.0
5   6   0.001469972
5   8   0.002
6   6   0.0
6   9   0.002
7   7   0.0
7   8   0.001469972
8   8   0.0
8   9   0.001469972
9   9   0.0
10   10   0.0
10   11   0.00055124
11   11   0.0
11   12   0.00055124
12   12   0.0
13   13   0.0
         CONNECTIVITY_FRZ_C  T
         INTERACTION_NUMBER  27
       &END FROZEN_COUPLINGS
       &PRINT
         &COEFFICIENTS  LOW
           &EACH
             MD  1
           &END EACH
         &END COEFFICIENTS
         &POPULATIONS  LOW
           &EACH
             MD  1
           &END EACH
         &END POPULATIONS
         &ADIAB_POPULATIONS  LOW
           &EACH
             MD  1
           &END EACH
         &END ADIAB_POPULATIONS
         &ADIABAT_ENERGIES  SILENT
           &EACH
             MD  1
           &END EACH
         &END ADIABAT_ENERGIES
         &SITE_ENERGIES  SILENT
           &EACH
             MD  1
           &END EACH
         &END SITE_ENERGIES
         &OFF_DIAGONALS  SILENT
           &EACH
             MD  1
           &END EACH
         &END OFF_DIAGONALS
         &PSEUDO_HAMILTONIAN  SILENT
           UNIT hartree
           &EACH
             MD  1
           &END EACH
         &END PSEUDO_HAMILTONIAN
         &SH_INFO  SILENT
           &EACH
             MD  1
           &END EACH
         &END SH_INFO
       &END PRINT
     &END ADIABATIC
     &PRINT
       &PROGRAM_RUN_INFO  OFF
         &EACH
           MD  200
         &END EACH
       &END PROGRAM_RUN_INFO
     &END PRINT
   &END MIXED
   &SUBSYS
     &CELL
       A     6.0000000000000007E+01    0.0000000000000000E+00    0.0000000000000000E+00
       B     0.0000000000000000E+00    6.0000000000000007E+01    0.0000000000000000E+00
       C     0.0000000000000000E+00    0.0000000000000000E+00    6.0000000000000007E+01
       PERIODIC  XYZ
       MULTIPLE_UNIT_CELL  1 1 1
     &END CELL
     &COORD
CT   -3.4294559164726174E-01    5.2854697570439735E-01    2.5994572282056820E+00
CT   -1.0138343917490167E+00    9.0368985553206738E-01    1.3969371883321557E+00
CT   -4.8245879325955482E-01    4.6719771941879812E-01    1.1832965090679239E-01
CT   -8.9414287835848361E-01    9.9460508712313245E-01   -1.1486761536652295E+00
CT    5.8925411218962276E-01   -4.4651691811450639E-01    2.5229207085489125E+00
HA   -5.5983496565842372E-01    9.2751378456562061E-01    3.5822118748557288E+00
HA   -1.8146418013645715E+00    1.6521685855514148E+00    1.3078936817558975E+00
HA   -1.5431388150538805E+00    1.8533455372602550E+00   -1.1438127162940359E+00
HA    1.1402869468848964E+00   -8.3087119834256618E-01    3.4335843381145175E+00
CT    6.0311839641166376E-01   -5.1801018502133311E-01    1.2484103976975924E-01
CT   -4.1908972103191550E-01    3.6574548184617961E-01   -2.3675178779188051E+00
CT    1.1075838271070044E+00   -1.0086567847242132E+00    1.2717246752520106E+00
CT    1.0929504478901153E+00   -1.0715352732814054E+00   -1.0790210478508175E+00
CT    6.4824432532505538E-01   -5.1639458139509653E-01   -2.3825066998304361E+00
HA   -8.9589083057335306E-01    7.3040867247235319E-01   -3.2960207954141487E+00
HA    1.8540222147228385E+00   -1.8087421548208078E+00    1.1386560241533943E+00
HA    1.9362969498859495E+00   -1.6885126920307594E+00   -1.1129719910639788E+00
HA    1.0232685830345611E+00   -8.2413068383692345E-01   -3.3080639787469353E+00
CT    5.0249393421275199E+00   -8.6424506480600183E-01    2.3554649130661205E+00
CT    5.0538045647078178E+00   -1.5392771610491511E+00    1.1499716880831417E+00
CT    5.0890324668990798E+00   -7.7423202080077669E-01   -3.8193208261058736E-02
CT    4.8937210815986996E+00   -1.3943462800031001E+00   -1.3047960557341043E+00
CT    5.1265949141116902E+00    5.5623939652182397E-01    2.4431784708263615E+00
HA    4.8780305483966400E+00   -1.4372949095112850E+00    3.3123973589333602E+00
HA    4.9126534539618927E+00   -2.5620179690746663E+00    1.1008890581128128E+00
HA    4.5923608045713609E+00   -2.5066662457890629E+00   -1.3185076083189813E+00
HA    5.2835350603840743E+00    1.1940645031858259E+00    3.3199741544154415E+00
CT    5.2914304651619322E+00    5.9945443046273572E-01    4.5219808937767503E-02
CT    5.0135212071511379E+00   -5.9587956958383947E-01   -2.4800613066392909E+00
CT    5.4563739961021271E+00    1.2761750480670813E+00    1.3028351739277302E+00
CT    5.4880696858502862E+00    1.2758578144625921E+00   -1.1278363743534567E+00
CT    5.4470028517297573E+00    7.0686514479698470E-01   -2.4065988488130601E+00
HA    4.8041271412511648E+00   -9.4713925036132818E-01   -3.5004892137594048E+00
HA    5.6642806756267152E+00    2.3808850107145014E+00    1.3368038405239868E+00
HA    5.8966865371263557E+00    2.3153148406260349E+00   -1.0622710574774432E+00
HA    5.5652715865715328E+00    1.3138908669900569E+00   -3.3813667869152129E+00
CT    1.0246772651943088E+01   -8.2331128849966873E-01    2.4405431233855910E+00
CT    1.0499758468947672E+01   -1.4342004122184910E+00    1.1983890269088195E+00
CT    1.0237138256220572E+01   -6.3843844686441786E-01    4.9726091901004570E-02
CT    1.0613263832515752E+01   -1.1694818810247674E+00   -1.2511002254308987E+00
CT    9.5348806755450255E+00    4.0762197206007650E-01    2.4693409108875644E+00
HA    1.0402527481762373E+01   -1.3972521697711431E+00    3.3642672784081111E+00
HA    1.1029630975804297E+01   -2.4167137277467621E+00    1.1847159451551323E+00
HA    1.1085598133232587E+01   -2.1082883832377388E+00   -1.3939987975551016E+00
HA    9.0431238254906958E+00    7.0725382786590796E-01    3.3928034761619985E+00
CT    9.6726695614789069E+00    5.9751722877130520E-01    1.0921771667053359E-01
CT    1.0251892856702641E+01   -5.3215998261612063E-01   -2.4490633867931297E+00
CT    9.2488467602156117E+00    1.1518024060034247E+00    1.2795638317434912E+00
CT    9.3934779899207808E+00    1.2768650064297336E+00   -1.0735082713884090E+00
CT    9.6904052150255016E+00    7.5539955684515236E-01   -2.3518834954883725E+00
HA    1.0217495535150670E+01   -1.1426249611990333E+00   -3.3540959945055175E+00
HA    8.6771517724554830E+00    2.0152486291045015E+00    1.3133048611729550E+00
HA    8.9663589742821479E+00    2.2974691405775047E+00   -9.3039638048904194E-01
HA    9.5745691338863672E+00    1.3972849509218728E+00   -3.2143951712386443E+00
CA    1.5799852408834989E+01   -5.1262844837953303E-01    3.4878800970434591E+00
CA    1.6378996933762956E+01   -7.8616309420467900E-01    2.2617669464683363E+00
CA    1.5726267130863627E+01   -4.3330519057953609E-01    1.0466131086495336E+00
CA    1.6309349531814348E+01   -8.2382187543792329E-01   -1.9852114844213176E-01
CA    1.4403645120836968E+01    1.2842996733037609E-01    1.1128260187999686E+00
CA    1.3850908381797007E+01    3.9529333770522096E-01    2.4041180946622616E+00
CA    1.4536944258063487E+01    4.9946481779751126E-02    3.5776519680403016E+00
H    1.6259877317154785E+01   -9.0645180173379836E-01    4.3961027178339238E+00
H    1.7259936532246400E+01   -1.5123009707701758E+00    2.2429373964372408E+00
H    1.7261278417892132E+01   -1.2711982304252343E+00   -2.6305282545617936E-01
H    1.2919575396914331E+01    9.6845066871375918E-01    2.4354554673360389E+00
H    1.4167639558521794E+01    2.6574286551912701E-01    4.5623406023073967E+00
CA    1.5620879745083840E+01   -5.5050370215484490E-01   -1.4313302291423371E+00
CA    1.3789140694325612E+01    4.7774657751513971E-01   -1.2755220575810536E-01
CA    1.4398646416865976E+01    2.3700018778219303E-01   -1.3795663832534331E+00
CA    1.6114407651840903E+01   -9.2560541835710952E-01   -2.6561940149155152E+00
H    1.2808928948282849E+01    8.8046174776450503E-01   -9.0727821884477797E-02
CA    1.3736235732049636E+01    5.9908611881682539E-01   -2.5812788073280690E+00
CA    1.5392620446804870E+01   -5.6394777578258570E-01   -3.8486231907806259E+00
H    1.7064799244896115E+01   -1.4435158883114321E+00   -2.7322752285180756E+00
CA    1.4203158288065996E+01    1.2111082611272204E-01   -3.8435267976983032E+00
H    1.2690619136623791E+01    9.3894202411427363E-01   -2.4961203527702369E+00
H    1.5781803679166172E+01   -8.8365842398391570E-01   -4.7954483549748774E+00
H    1.3617353599671478E+01    1.9883061384007930E-01   -4.7626351451575584E+00
CA    2.0166750876803174E+01   -5.7930451044999276E-01    3.6452398204282024E+00
CA    2.0661581730968773E+01   -1.2365725050863463E+00    2.4798649656873666E+00
CA    2.0342758720853116E+01   -6.6044632915735768E-01    1.2145095236985324E+00
CA    2.0750255868491127E+01   -1.3432196649771326E+00    5.8561541124004517E-02
CA    1.9601226483010656E+01    5.1055114656340861E-01    1.1137756773285890E+00
CA    1.9305253661571165E+01    1.2465745793020937E+00    2.3108510118525349E+00
CA    1.9520831130830018E+01    6.6408686953362550E-01    3.5941740352579310E+00
H    2.0342277014966246E+01   -1.0434071292192959E+00    4.6658405755012842E+00
H    2.1191867353456214E+01   -2.1983636772357782E+00    2.6046094355230425E+00
H    2.1402781793299031E+01   -2.1903993432013662E+00    8.3817206964014096E-02
H    1.8775878557988005E+01    2.2025813340481903E+00    2.3294455370958724E+00
H    1.9241320175010912E+01    1.1922638075150411E+00    4.4865315155942058E+00
CA    2.0420950092312808E+01   -7.9746947179753691E-01   -1.2104485185578422E+00
CA    1.9467561851425579E+01    1.2092553575114326E+00   -1.2581680509579155E-01
CA    1.9857005493957466E+01    4.9966054902855361E-01   -1.3039345709033408E+00
CA    2.0733288945717799E+01   -1.5208112141406984E+00   -2.4141566408494799E+00
H    1.8893678758114444E+01    2.0904714889179425E+00   -1.5800336053876349E-01
CA    1.9586208445488115E+01    1.1050680873592207E+00   -2.5413204776649483E+00
CA    2.0525033954696379E+01   -8.6024816762516365E-01   -3.6851507972094524E+00
H    2.1163469060304681E+01   -2.5394156800296646E+00   -2.4847024562865876E+00
CA    1.9824539197539892E+01    3.8277385748020032E-01   -3.7103784887186433E+00
H    1.9000549607690346E+01    1.9834311860188805E+00   -2.4433601614456180E+00
H    2.0777206699351517E+01   -1.3199844705624886E+00   -4.6131960491082067E+00
H    1.9664604176231734E+01    8.6308779458969065E-01   -4.6422782069196034E+00
CA    2.5172209409970215E+01   -6.8296172474690642E-01    3.8639976554646300E+00
CA    2.5703143294279975E+01   -1.1284192812555927E+00    2.6505249090115832E+00
CA    2.5277197130306561E+01   -6.9754477054844799E-01    1.3884912391109112E+00
CA    2.5805408393764278E+01   -1.2459401164485031E+00    2.2813078151427982E-01
CA    2.4280505880082366E+01    2.9866933107376020E-01    1.2841876455524468E+00
CA    2.3765484579518336E+01    7.7777634351371217E-01    2.4785653830912486E+00
CA    2.4156823036358968E+01    2.5565106056197173E-01    3.7446733832069481E+00
H    2.5574064346441403E+01   -1.0899285202049271E+00    4.7925414632756373E+00
H    2.6493919026328435E+01   -1.7936470645788760E+00    2.7319529841650634E+00
H    2.6533164643799974E+01   -2.1174217001491180E+00    3.2893883236629862E-01
H    2.2884492171205341E+01    1.4511903841029723E+00    2.5018291173210203E+00
H    2.3784827797566173E+01    6.9130198880880478E-01    4.7113102344173265E+00
CA    2.5362050381562728E+01   -8.0601972660543331E-01   -1.0683287426238199E+00
CA    2.3872230895839483E+01    8.4237546437530497E-01    2.2900966909513230E-02
CA    2.4460970920709912E+01    3.5213259033626410E-01   -1.1636179608089283E+00
CA    2.5852462729709409E+01   -1.3574008983936030E+00   -2.2878423274598014E+00
H    2.3241391289622602E+01    1.7140641289523000E+00   -8.5815472008459001E-02
CA    2.4045244035882600E+01    8.4718329374433987E-01   -2.3969083047590720E+00
CA    2.5424199789960493E+01   -7.4257276828428675E-01   -3.5132654513677486E+00
H    2.6447900933834067E+01   -2.2219919314844203E+00   -2.1706358889497652E+00
CA    2.4525030713719751E+01    2.9937921311692917E-01   -3.5930369528392823E+00
H    2.3466652374981557E+01    1.7073835138804003E+00   -2.4406495369015766E+00
H    2.5830311870438464E+01   -1.0910961036355884E+00   -4.4774562476398172E+00
H    2.4203369687904750E+01    7.1599603777233845E-01   -4.5569784211206361E+00
Ne   -2.8961294290102369E+01   -3.1783287358932125E+02   -1.6937103359095670E+02
Ne   -2.9946113547328667E+02    1.6186052478531224E+02   -5.7618206654376102E+01
Ne   -2.5423325596734171E+02   -2.1640060425274137E+02   -1.6699031120352544E+01
Ne   -3.7238126447412486E+02   -1.0547809027615848E+02   -6.2453348075681554E+01
Ne    2.5586206143659260E+02   -2.4750778317118318E+02   -4.1120130894273970E+01
Ne   -9.2273388845009549E+01    1.7932273659562956E+00   -2.7267247861158648E+02
Ne   -4.3961180334982657E+02    3.2897425472440904E+02   -4.2396409564887205E+02
Ne   -2.8317317865037062E+01   -1.5387162569564958E+02   -1.5980482435058073E+02
Ne    1.7490986592094006E+02    2.8657470987709829E+01    2.9225152721983221E+02
Ne   -1.6294470141786800E+02    1.4263439739027157E+02   -4.5176091766484632E+01
Ne   -4.1312890676081963E+02    6.5426849809091493E+01    2.8138160894247312E+02
Ne   -8.5483759018476917E+00   -2.2964217158864645E+02   -1.4906380556294769E+02
Ne    1.4237646237244351E+02   -5.5200029809484661E+01    2.0922927397569609E+02
Ne    1.0766919345899251E+02   -2.4616307440960983E+02    8.9409330969876535E+01
Ne    4.4849623378399812E+01    1.9008133447315294E+02    1.6653046461195598E+02
Ne   -2.0238948982112831E+02   -9.9697767867268041E+01   -2.6076808846132656E+02
Ne   -1.8698368088340729E+02    2.1644628003477024E+02    1.8927301064710744E+02
Ne    7.9388487313775116E+00    3.0831042618896571E+00   -1.4829503099899409E+02
Ne   -3.3041076194171274E+02   -1.2291162752293071E+02    8.7071899114789257E+00
Ne   -8.8203127092898015E+01   -2.8345485535828676E+01    5.5130647655218006E+01
Ne    3.3777451404076135E+02    2.5527873770816174E+02    2.8068605899750264E+02
Ne    4.7515962013861360E+02    4.5757780259648804E+01    2.7308713763532427E+02
Ne   -3.5355534531908023E+02   -2.0345534756442481E+02   -1.3847375987912221E+02
Ne   -9.6101558047014763E+01    1.7958039732679495E+01    1.3330608642060847E+02
Ne   -3.8887614205822626E+02    2.5302669347614878E+02    3.8748804709926731E+01
Ne   -2.0736627709815252E+02   -2.4167176856695957E+02   -3.4830220914877501E+01
Ne   -1.1350801916118119E+01   -1.3906114383902403E+02    2.5454342886139781E+01
Ne   -2.2072996067892103E+02   -2.4916140652703721E+01    2.0866558569301941E+02
Ne    2.7280583053297056E+02   -1.1072845184230935E+02    9.1694042902251169E+01
Ne    4.6453450435565507E+01   -9.9141209578418582E+01   -2.1713163548319008E+02
Ne   -2.5542008625613167E+02   -3.4869233448214345E+02   -9.2957558026970105E+01
Ne    6.1680214564673683E+01   -3.4915243357321731E+02    1.2830398013991251E+02
Ne   -2.1514957326467629E+02    4.6123633978210833E+01    3.1907243810958272E+02
Ne    4.9257952535997397E+01   -1.6424899068515504E+02   -4.9105522805811393E+02
Ne   -9.5078800825731221E+01   -1.4617038810376517E+01   -1.3922509548751003E+02
Ne   -3.7548151124610666E+02    1.3101213917916547E+02    5.4429441030960038E+02
Ne   -1.3093517963494594E+02   -1.8805824097842651E+02    6.2719261877622723E-01
Ne    2.3283699547763851E+02   -2.7233886549599089E+02   -3.6463643998178907E+02
Ne   -2.4886772301538070E+02   -8.5460243534101039E+01   -1.6200357837983105E+02
Ne    4.6725193805752480E+02    3.4584201733846487E+02    1.1774875262712644E+02
Ne   -2.8119888966471905E+01    5.0669747610039494E+01    1.9803566843892628E+02
Ne   -1.9425772330784457E+02   -7.6171295768963873E+01   -7.1098619198076179E+01
Ne   -1.1810459739233872E+02   -2.7825069900755346E+02   -2.9271797978837685E+02
Ne   -4.4002800306514040E+01   -1.5661319154835041E+02    2.4387641963849160E+02
Ne    4.9743126229353925E+02    2.3537290364263345E+01    1.8975596266921124E+02
Ne   -2.6304793196412282E+02    2.2473674911609859E+02    1.0827097920274329E+02
Ne   -3.9808606017837701E+02   -1.1870083672370919E+02    3.8817859241351994E+02
Ne    4.5901453979056032E+02    4.3806288155772694E+02   -1.6962278493801944E+02
Ne   -6.8718174982024422E+01   -1.9135752253722947E+02    4.3141498563955486E+02
Ne    6.0311137848799626E+02    1.4916724265492013E+02    2.5799038884450874E+02
Ne   -8.5282727590796696E+01   -1.0662684214771431E+02   -3.1004517692970410E+02
Ne    1.3753070738487216E+02    2.4622960035721587E+02   -2.3017220846186504E+02
Ne    1.1529626036912883E+02   -2.1451331041156831E+02    2.3675240203180851E+02
Ne   -6.2508882663256236E+02    4.0812338808632819E+02   -6.0698791785918513E+02
Ne   -3.0352555652757928E+01    5.2682617421594848E+01   -8.2973363212835608E+01
Ne   -1.9764793617481408E+02   -1.8005560193605856E+01   -3.9776211521694313E+02
Ne    9.9980998463581287E+01    8.7918584819766735E+01   -1.3563437083562272E+02
Ne    4.4479492422856502E+01   -2.7314643022816153E+01   -2.7026833370798039E+02
Ne   -3.8833257495838438E+02    1.4237857841644703E+02   -5.4498968100600780E+02
Ne    1.6868134881810934E+02    1.4042578524621308E+02   -9.5217627253871754E+01
Ne    1.3041771969905608E+02   -2.3437326607402355E+02   -1.3011343366066401E+02
Ne    1.3162330595051966E+02    5.1599029340257255E+02    4.3843715212864561E+02
Ne   -8.4196963356756001E+01    8.9511859792804060E+01   -1.3330087649161197E+02
Ne    9.9886810665435021E+01   -2.4576718287676067E+02   -5.2296287891015453E+01
Ne    3.6742534610517004E+02    4.9567456717269216E+01   -4.0726703184622909E+02
Ne   -1.8512712058986452E+02    5.0321137850639005E+01   -1.5532809176352995E+01
Ne    1.6757141319970714E+01   -3.2383828443839758E+02    1.0359590296268555E+01
Ne   -1.4809354370442188E+02   -5.4049024981910485E+01    4.5422052939161262E+01
Ne   -2.1258086368110508E+01    1.1150189485515382E+02   -3.0598303096377344E+02
Ne    2.7469902607957049E+01    1.2206475057218786E+02    4.8213399754413302E+01
Ne    9.0080233673337105E+01   -1.7745577462455071E+02   -7.9309647015813184E+01
Ne   -1.9114481889376080E+02   -1.5678427419038249E+02    3.1523142738454351E+02
Ne   -5.3088739926254118E+02    4.3566055525431250E+02    1.0333915702478969E+02
Ne    3.3849906833097879E+02    2.0788476598595065E+02    4.0833785518296551E+01
Ne   -2.2947003396792536E+02   -2.8869295281241637E+01   -5.0345910407767413E+01
Ne   -1.2346460177536362E+02    5.0415459949966635E+02   -4.0617552033838786E+02
Ne   -9.8322219486513475E+01   -6.4091895910171260E+01   -3.5555812085055756E+01
Ne   -1.6070353153907149E+02   -2.2648032312742365E+02   -3.8892134924857589E+02
Ne   -6.2707491655558535E+01   -1.0994691841915652E+02   -1.9505146974614783E+02
Ne   -2.2358152864928354E+02    1.6636752380436550E+02   -1.1235307420720996E+02
Ne   -1.3226728435975633E+02    4.7373466837522579E+02   -2.3694277198776248E+02
Ne    1.6355796112728598E+02    1.9324155468267952E+02    3.7844649645615425E+02
Ne   -1.5300034528322399E+02    1.5814037133222880E+02    1.4055863011866525E+00
Ne    1.1514791413971279E+01    1.8936448402634198E+02    5.7601633016560743E+02
Ne    2.5449803163249111E+01    3.4090284330514542E+01   -4.9835332516591188E+02
Ne    1.3154527917026516E+02   -4.1150377038204752E+01   -1.6127715746202782E+02
Ne   -2.1672335196145745E+01    2.0270760155326096E+02   -1.1646406809577476E+01
Ne   -5.5820736007481550E+01    1.7136440089934911E+02   -1.7796853026197007E+02
Ne    5.8692165927070072E+01    7.2780127081023835E+01    9.6980845891745687E+01
Ne    1.4791052117102166E+02    1.1681423195790390E+02    5.5112070800744800E+02
Ne    3.6463757220376232E+02    2.4860121629231281E+02   -1.6680808786071759E+02
Ne    1.9880351766373488E+02    9.1718752795487415E+00    9.3833935003093401E+01
Ne   -2.3265539276682478E+02    2.1544109859741769E+02   -3.4894535984637616E+02
Ne   -3.3782620198582322E+01   -2.4710195231301256E+01    3.0694440883645370E+01
Ne   -2.1328625741254638E+02   -2.6110524740723429E+02    1.5886384784896234E+02
Ne    4.9373139609513748E+02   -4.4356921642299568E+01    2.0670663588853100E+02
Ne   -1.7728146459429550E+02    2.2934658998570541E+02   -3.5524404752259460E+02
Ne    5.9160172973011655E+01   -4.5530348521856695E+01   -4.5537021362762596E+02
Ne    2.7409918700022327E+01    2.2598166549486348E+02    2.9850203008490933E+01
Ne   -7.3571452056956034E+01   -5.1282147781916628E+01    2.0369673818355128E+02
Ne   -1.8596612513551150E+02    2.5320966365673087E+02    2.1111032133750294E+02
Ne    2.0116499911029013E+02    9.9368794356050927E+01   -3.6124510853310554E+01
Ne    2.1767520785663217E+02    1.3047586714815472E+02   -1.6411437113370124E+02
Ne   -1.8392425431656989E+02   -1.7224168733253424E+02   -3.2717678959775554E+02
Ne   -2.0547584158649119E+01    1.4507050629278848E+02    1.5634226737802885E+02
Ne   -3.3672258256997577E+02    1.0572757465205036E+02   -1.8867017256607042E+02
Ne    2.7984245222238656E+02    1.0025352163894078E+02   -7.8240493376290857E+01
Ne   -4.3727901610145256E+02   -8.7564858899374798E+00   -6.7852903822603537E+01
Ne    2.3340203685212469E+01    1.9314645108864286E+02   -2.3189613311348913E+02
Ne    6.4919246846696592E+02    8.9605881672455709E+01    1.7098039098256574E+01
Ne    2.5773696700661640E+02    1.1291525035287020E+02   -2.2495901596007457E+01
Ne   -5.0956844188504377E+01   -1.9156301960847591E+02    2.2572445934647573E+02
Ne    5.5632707914402062E+01   -6.9055057574722775E+02   -1.9888067741665301E+02
Ne   -1.7501946640373424E+02    5.7066424059526514E+02   -1.2976749051762414E+02
Ne   -5.0302647871595639E+02   -8.5053819347508494E+01   -3.1133638726629761E+02