#     Step Nr.          Time[fs]        Kin.[a.u.]          Temp[K]            Pot.[a.u.]        Cons Qty[a.u.]        UsedTime[s]
         0            0.000000         0.393255336       335.168867385         0.323952936         0.717208272         0.000000000
         1            0.100000         0.393354289       335.253203749         0.323853911         0.717208199         0.104869148
         2            0.200000         0.393494067       335.372335637         0.323714036         0.717208103         0.030797280
         3            0.300000         0.393673379       335.525162113         0.323534597         0.717207976         0.039413813
         4            0.400000         0.393890383       335.710113321         0.323317432         0.717207815         0.027832459
         5            0.500000         0.394142647       335.925116200         0.323064972         0.717207619         0.028675716
         6            0.600000         0.394427140       336.167587511         0.322780248         0.717207387         0.027331652
         7            0.700000         0.394740248       336.434447888         0.322466874         0.717207123         0.028703219
         8            0.800000         0.395077808       336.722147969         0.322129019         0.717206827         0.029370141
         9            0.900000         0.395435151       337.026708647         0.321771354         0.717206505         0.029367463
        10            1.000000         0.395807163       337.343772037         0.321398997         0.717206160         0.016733872
        11            1.100000         0.396188354       337.668658146         0.321017443         0.717205796         0.017083088
        12            1.200000         0.396572927       337.996427597         0.320632492         0.717205419         0.030204679
        13            1.300000         0.396954864       338.321949848         0.320250169         0.717205033         0.027741646
        14            1.400000         0.397328006       338.639976086         0.319876639         0.717204645         0.029134930
        15            1.500000         0.397686143       338.945213723         0.319518117         0.717204259         0.051265353
        16            1.600000         0.398023102       339.232402126         0.319180779         0.717203882         0.023733422
        17            1.700000         0.398332839       339.496388623         0.318870679         0.717203518         0.027290633
        18            1.800000         0.398609521       339.732203191         0.318593651         0.717203173         0.015834194
        19            1.900000         0.398847618       339.935131679         0.318355234         0.717202853         0.027554297
        20            2.000000         0.399041979       340.100783539         0.318160582         0.717202560         0.027651924
        21            2.100000         0.399187906       340.225156758         0.318014395         0.717202301         0.035812993
        22            2.200000         0.399281235       340.304700439         0.317920844         0.717202080         0.036119635
        23            2.300000         0.399318391       340.336368000         0.317883507         0.717201899         0.039581823
        24            2.400000         0.399296448       340.317665847         0.317905313         0.717201761         0.027879391
        25            2.500000         0.399213176       340.246694104         0.317988493         0.717201669         0.028698235
        26            2.600000         0.399067080       340.122176883         0.318134545         0.717201625         0.027789452
        27            2.700000         0.398857422       339.943487588         0.318344207         0.717201630         0.018784721
        28            2.800000         0.398584254       339.710668334         0.318617430         0.717201685         0.014836873
        29            2.900000         0.398248416       339.424435292         0.318953373         0.717201788         0.017030044
        30            3.000000         0.397851536       339.086177525         0.319350405         0.717201941         0.016657316
        31            3.100000         0.397396027       338.697950105         0.319806113         0.717202140         0.027912098
        32            3.200000         0.396885058       338.262455017         0.320317327         0.717202385         0.027626115
        33            3.300000         0.396322526       337.783012589         0.320880146         0.717202672         0.027806636
        34            3.400000         0.395713012       337.263527780         0.321489988         0.717203000         0.027483381
        35            3.500000         0.395061731       336.708445313         0.322141632         0.717203363         0.026104607
        36            3.600000         0.394374471       336.122698449         0.322829286         0.717203757         0.044050623
        37            3.700000         0.393657531       335.511655101         0.323546647         0.717204178         0.029011317
        38            3.800000         0.392917642       334.881052898         0.324286978         0.717204620         0.029010348
        39            3.900000         0.392161889       334.236929425         0.325043190         0.717205079         0.028280495
        40            4.000000         0.391397621       333.585549146         0.325807928         0.717205549         0.027657563
        41            4.100000         0.390632371       332.933331458         0.326573654         0.717206024         0.028969406
        42            4.200000         0.389873761       332.286773908         0.327332738         0.717206499         0.015081337
        43            4.300000         0.389129414       331.652372014         0.328077554         0.717206968         0.016144018
        44            4.400000         0.388406854       331.036538861         0.328800570         0.717207425         0.015577739
        45            4.500000         0.387713417       330.445527376         0.329494447         0.717207865         0.017805424
        46            4.600000         0.387056160       329.885351058         0.330152121         0.717208281         0.014633393
        47            4.700000         0.386441766       329.361707745         0.330766902         0.717208668         0.017375009
        48            4.800000         0.385876468       328.879908023         0.331332553         0.717209021         0.016508351
        49            4.900000         0.385365963       328.444807903         0.331843373         0.717209336         0.016808721
        50            5.000000         0.384915343       328.060747568         0.332294266         0.717209609         0.015531737
        51            5.100000         0.384529026       327.731492378         0.332680809         0.717209835         0.016679347
        52            5.200000         0.384210697       327.460182294         0.332999316         0.717210013         0.016675832
        53            5.300000         0.383963255       327.249289545         0.333246883         0.717210138         0.016346971
        54            5.400000         0.383788779       327.100584279         0.333421432         0.717210210         0.029443275
        55            5.500000         0.383688489       327.015108259         0.333521738         0.717210228         0.028011193
        56            5.600000         0.383662733       326.993156251         0.333547456         0.717210189         0.041128110
        57            5.700000         0.383710967       327.034266272         0.333499128         0.717210095         0.030453046
        58            5.800000         0.383831763       327.137219467         0.333378183         0.717209946         0.031732965
        59            5.900000         0.384022810       327.300047600         0.333186933         0.717209743         0.038578320
        60            6.000000         0.384280941       327.520050574         0.332928548         0.717209488         0.027592403
        61            6.100000         0.384602160       327.793823317         0.332607025         0.717209185         0.028764019
        62            6.200000         0.384981685       328.117289821         0.332227150         0.717208835         0.027899765
        63            6.300000         0.385413996       328.485746152         0.331794446         0.717208442         0.037502323
        64            6.400000         0.385892898       328.893910961         0.331315113         0.717208012         0.031078618
        65            6.500000         0.386411582       329.335981432         0.330795966         0.717207547         0.050368503
        66            6.600000         0.386962701       329.805697097         0.330244353         0.717207055         0.030723792
        67            6.700000         0.387538453       330.296406735         0.329668085         0.717206539         0.031132053
        68            6.800000         0.388130663       330.801142814         0.329075343         0.717206006         0.042086155
        69            6.900000         0.388730878       331.312702257         0.328474583         0.717205461         0.018269522
        70            7.000000         0.389330465       331.823725840         0.327874447         0.717204911         0.015903923
        71            7.100000         0.389920702       332.326780728         0.327283661         0.717204362         0.015297945
        72            7.200000         0.390492881       332.814445387         0.326710939         0.717203821         0.029036842
        73            7.300000         0.391038410       333.279395707         0.326164883         0.717203292         0.028516791
        74            7.400000         0.391548903       333.714485782         0.325653880         0.717202783         0.029563732
        75            7.500000         0.392016282       334.112829991         0.325186016         0.717202298         0.015937003
        76            7.600000         0.392432870       334.467885020         0.324768975         0.717201845         0.016896151
        77            7.700000         0.392791479       334.773524739         0.324409948         0.717201427         0.015179995
        78            7.800000         0.393085495       335.024112599         0.324115555         0.717201050         0.030345626
        79            7.900000         0.393308953       335.214564499         0.323891765         0.717200718         0.041161968
        80            8.000000         0.393456609       335.340410884         0.323743827         0.717200436         0.017922304
        81            8.100000         0.393524008       335.397854049         0.323676200         0.717200208         0.015453195
        82            8.200000         0.393507536       335.383815058         0.323692500         0.717200035         0.015774594
        83            8.300000         0.393404477       335.295978884         0.323795446         0.717199923         0.027043041
        84            8.400000         0.393213050       335.132827190         0.323986822         0.717199872         0.027905821
        85            8.500000         0.392932445       334.893669360         0.324267440         0.717199885         0.030319284
        86            8.600000         0.392562856       334.578671027         0.324637108         0.717199964         0.017505270
        87            8.700000         0.392105510       334.188878367         0.325094602         0.717200112         0.017061627
        88            8.800000         0.391562704       333.726247961         0.325637631         0.717200335         0.014399923
        89            8.900000         0.390937836       333.193677884         0.326262798         0.717200634         0.031453742
        90            9.000000         0.390235471       332.595056202         0.326965549         0.717201020         0.041503990
        91            9.100000         0.389461417       331.935335852         0.327740086         0.717201504         0.017228608
        92            9.200000         0.388622864       331.220642881         0.328579237         0.717202101         0.014331199
        93            9.300000         0.387728542       330.458417747         0.329474286         0.717202828         0.018112307
        94            9.400000         0.386788858       329.657531475         0.330414827         0.717203685         0.017771381
        95            9.500000         0.385815815       328.828213836         0.331388807         0.717204622         0.033229777
        96            9.600000         0.384822346       327.981486533         0.332383163         0.717205508         0.031729870
        97            9.700000         0.382351977       325.876007737         0.334854184         0.717206161         0.029532911
        98            9.800000         0.381304127       324.982932217         0.335902604         0.717206731         0.015346731
        99            9.900000         0.380218015       324.057246614         0.336989442         0.717207457         0.028397469
       100           10.000000         0.379104300       323.108034430         0.338103956         0.717208255         0.028985563
       101           10.100000         0.377974653       322.145244381         0.339234400         0.717209053         0.029932473
       102           10.200000         0.376840865       321.178924728         0.340368943         0.717209808         0.045657946
       103           10.300000         0.375714274       320.218738715         0.341496231         0.717210506         0.030253832
       104           10.400000         0.374605511       319.273746811         0.342605633         0.717211144         0.044335675
       105           10.500000         0.373524422       318.352342135         0.343687303         0.717211725         0.016263815
       106           10.600000         0.372480068       317.462246195         0.344732184         0.717212252         0.020032573
       107           10.700000         0.371480731       316.610518668         0.345731994         0.717212726         0.015286793
       108           10.800000         0.370533920       315.803558025         0.346679227         0.717213148         0.032171262
       109           10.900000         0.369646357       315.047093347         0.347567163         0.717213519         0.040654968
       110           11.000000         0.368823968       314.346176925         0.348389871         0.717213839         0.031644057
       111           11.100000         0.368071872       313.705171124         0.349142233         0.717214106         0.031354607
       112           11.200000         0.367394360       313.127732300         0.349819959         0.717214319         0.031088876
       113           11.300000         0.366794879       312.616798157         0.350419600         0.717214479         0.032817150
       114           11.400000         0.366276021       312.174579077         0.350938564         0.717214585         0.028237618
       115           11.500000         0.365839525       311.802556442         0.351375113         0.717214638         0.027364369
       116           11.600000         0.365486280       311.501488374         0.351728358         0.717214638         0.017170702
       117           11.700000         0.365216342       311.271422242         0.351998245         0.717214587         0.031289995
       118           11.800000         0.365028955       311.111713209         0.352185532         0.717214487         0.030345472
       119           11.900000         0.364922577       311.021048308         0.352291764         0.717214341         0.030033836
       120           12.000000         0.364894926       310.997481077         0.352319227         0.717214152         0.027748390
       121           12.100000         0.364943023       311.038474218         0.352270900         0.717213923         0.029057708
       122           12.200000         0.365063252       311.140943885         0.352150407         0.717213658         0.032206256
       123           12.300000         0.365251412       311.301311901         0.351961949         0.717213362         0.016764991
       124           12.400000         0.365502796       311.515564667         0.351710241         0.717213037         0.041480751
       125           12.500000         0.365812256       311.779315601         0.351400435         0.717212691         0.017771807
       126           12.600000         0.366174284       312.087869451         0.351038043         0.717212327         0.044688986
       127           12.700000         0.366583089       312.436290992         0.350628861         0.717211950         0.018122110
       128           12.800000         0.367032684       312.819477727         0.350178882         0.717211566         0.029875339
       129           12.900000         0.367516964       313.232226859         0.349694216         0.717211181         0.043317078
       130           13.000000         0.368029793       313.669306893         0.349181007         0.717210799         0.031224659
       131           13.100000         0.368565084       314.125531700         0.348645343         0.717210427         0.029551313
       132           13.200000         0.369116886       314.595829179         0.348093181         0.717210067         0.039368042
       133           13.300000         0.369679461       315.075307638         0.347530265         0.717209726         0.019190967
       134           13.400000         0.370247352       315.559317848         0.346962055         0.717209407         0.017417073
       135           13.500000         0.370815457       316.043509934         0.346393657         0.717209114         0.017044711
       136           13.600000         0.371379086       316.523887349         0.345829764         0.717208851         0.018655647
       137           13.700000         0.371934019       316.996852266         0.345274601         0.717208620         0.018501558
       138           13.800000         0.372476548       317.459246725         0.344731876         0.717208424         0.016850498
       139           13.900000         0.373003529       317.908388664         0.344204737         0.717208266         0.017520500
       140           14.000000         0.373512394       318.342091149         0.343695751         0.717208145         0.018558996
       141           14.100000         0.374001183       318.758682614         0.343206880         0.717208063         0.019083307
       142           14.200000         0.374468555       319.157020607         0.342739465         0.717208020         0.017189362
       143           14.300000         0.374913788       319.536489200         0.342294228         0.717208015         0.017048317
       144           14.400000         0.375336768       319.896992452         0.341871280         0.717208048         0.017872884
       145           14.500000         0.375737977       320.238940305         0.341470138         0.717208115         0.018565554
       146           14.600000         0.376118457       320.563220575         0.341089758         0.717208215         0.018668312
       147           14.700000         0.376479769       320.871164862         0.340728575         0.717208344         0.017326296
       148           14.800000         0.376823950       321.164507906         0.340384548         0.717208498         0.043428226
       149           14.900000         0.377153445       321.445334096         0.340055227         0.717208672         0.017811336
       150           15.000000         0.377471034       321.716013199         0.339737826         0.717208860         0.019701742
       151           15.100000         0.377779743       321.979124125         0.339429312         0.717209055         0.019060713
       152           15.200000         0.378082738       322.237364297         0.339126510         0.717209248         0.017102657
       153           15.300000         0.378383194       322.493440645         0.338826233         0.717209427         0.018485261
       154           15.400000         0.378684137       322.749932978         0.338525442         0.717209579         0.018100367
       155           15.500000         0.378988252       323.009128053         0.338221433         0.717209685         0.018116838
       156           15.600000         0.379297642       323.272818683         0.337912082         0.717209724         0.017480909
       157           15.700000         0.379613557       323.542071018         0.337596118         0.717209675         0.017012549
       158           15.800000         0.379936155       323.817018668         0.337273376         0.717209530         0.019135889
       159           15.900000         0.380264463       324.096833370         0.336944862         0.717209324         0.018410339
       160           16.000000         0.380596868       324.380140667         0.336612292         0.717209160         0.018853229
       161           16.100000         0.380932362       324.666079892         0.336276827         0.717209190         0.017799213
       162           16.200000         0.382764487       326.227587482         0.334445006         0.717209493         0.030745383
       163           16.300000         0.383198278       326.597304659         0.334010800         0.717209078         0.019495758
       164           16.400000         0.383696369       327.021824278         0.333512143         0.717208512         0.019276846
       165           16.500000         0.384252813       327.496077591         0.332955176         0.717207989         0.017861292
       166           16.600000         0.384861644       328.014980231         0.332345915         0.717207559         0.018769928
       167           16.700000         0.385517645       328.574085242         0.331689559         0.717207204         0.019209033
       168           16.800000         0.386216251       329.169502470         0.330990639         0.717206890         0.019160091
       169           16.900000         0.386953216       329.797612881         0.330253375         0.717206591         0.018245679
       170           17.000000         0.387724299       330.454801619         0.329481989         0.717206288         0.018946320
       171           17.100000         0.388525043       331.137270079         0.328680927         0.717205970         0.018339890
       172           17.200000         0.389350645       331.840925130         0.327854985         0.717205630         0.019173767
       173           17.300000         0.390195886       332.561318164         0.327009378         0.717205264         0.017172126
       174           17.400000         0.391055102       333.293622567         0.326149771         0.717204873         0.019286183
       175           17.500000         0.391922195       334.032639970         0.325282263         0.717204458         0.018527069
       176           17.600000         0.392790657       334.772823925         0.324413364         0.717204020         0.017564911
       177           17.700000         0.393653616       335.508318319         0.323549948         0.717203564         0.017860035
       178           17.800000         0.394503897       336.233006908         0.322699197         0.717203093         0.017238390
       179           17.900000         0.395334086       336.940571471         0.321868527         0.717202613         0.019696328
       180           18.000000         0.396136609       337.624556916         0.321065518         0.717202127         0.018428252
       181           18.100000         0.396903813       338.278439729         0.320297829         0.717201642         0.017518052
       182           18.200000         0.397628051       338.895702388         0.319573111         0.717201162         0.017192892
       183           18.300000         0.398301767       339.469906495         0.318898927         0.717200694         0.018168222
       184           18.400000         0.398917592       339.994770019         0.318282651         0.717200244         0.018822417
       185           18.500000         0.399468431       340.464246268         0.317731384         0.717199815         0.017325314
       186           18.600000         0.399947554       340.872599518         0.317251861         0.717199415         0.018437077
       187           18.700000         0.400348685       341.214480339         0.316850363         0.717199048         0.020923510
       188           18.800000         0.400666080       341.484994403         0.316532640         0.717198720         0.018995997
       189           18.900000         0.400894611       341.679769698         0.316303823         0.717198434         0.017759716
       190           19.000000         0.401029835       341.795019895         0.316168360         0.717198195         0.018540729
       191           19.100000         0.401068060       341.827598918         0.316129946         0.717198006         0.019716730
       192           19.200000         0.401006404       341.775049654         0.316191468         0.717197872         0.019193234
       193           19.300000         0.400842842       341.635647076         0.316354953         0.717197794         0.017635292
       194           19.400000         0.400576247       341.408430342         0.316621528         0.717197775         0.020439699
       195           19.500000         0.400206421       341.093230059         0.316991394         0.717197815         0.018820009
       196           19.600000         0.399734116       340.690687140         0.317463799         0.717197914         0.017547621
       197           19.700000         0.399161037       340.202256034         0.318037038         0.717198074         0.016628906
       198           19.800000         0.398489842       339.630201256         0.318708451         0.717198293         0.018452692
       199           19.900000         0.397724132       338.977591451         0.319474437         0.717198568         0.018430167
       200           20.000000         0.396868424       338.248277895         0.320330476         0.717198901         0.018238117
