 # Version information for this restart file 
 # current date 2021-01-14 05:48:28.515
 # current working dir /scratch/sgiannini/FOB-SH-REGTESTS_/32-XXXX_code_extension_V2/run-fssh-3NAP-3ANT-NFF-FE-CT
 # Program compiled at                              Wed  6 Jan 14:38:30 GMT 2021
 # Program compiled on                                   bulstake.phys.ucl.ac.uk
 # Program compiled for                                                    local
 # Source code revision number                                       git:3649ac3
 &GLOBAL
   BLACS_GRID  SQUARE
   PREFERRED_FFT_LIBRARY  FFTW3
   PRINT_LEVEL  LOW
   PROGRAM_NAME  CP2K
   PROJECT_NAME run
   RUN_TYPE  MD
 &END GLOBAL
 &MOTION
   &MD
     ENSEMBLE  NVE
     STEPS  200
     TIMESTEP     9.9999999999999992E-02
     STEP_START_VAL  200
     TIME_START_VAL     2.0000000000000071E+01
     ECONS_START_VAL     7.2836560419169993E-01
     TEMPERATURE     3.0000000000000000E+02
     &THERMOSTAT
       REGION  GLOBAL
       &NOSE
         LENGTH  3
         YOSHIDA  3
         TIMECON     9.9999999999999989E+02
         MTS  2
       &END NOSE
     &END THERMOSTAT
     &AVERAGES  T
       &RESTART_AVERAGES
         ITIMES_START  1
         AVECPU     1.8348512304946784E-02
         AVEHUGONIOT     0.0000000000000000E+00
         AVETEMP_BARO     0.0000000000000000E+00
         AVEPOT     3.4210676516185134E-01
         AVEKIN     3.8625589736484861E-01
         AVETEMP     3.2920329282272820E+02
         AVEKIN_QM     0.0000000000000000E+00
         AVETEMP_QM     0.0000000000000000E+00
         AVEVOL     1.4576402699474397E+06
         AVECELL_A     1.1338356797313864E+02
         AVECELL_B     1.1338356797313864E+02
         AVECELL_C     1.1338356797313864E+02
         AVEALPHA     9.0000000000000043E+01
         AVEBETA     9.0000000000000043E+01
         AVEGAMMA     9.0000000000000043E+01
         AVE_ECONS    -3.7456050726003571E-03
         AVE_PRESS     0.0000000000000000E+00
         AVE_PXX     0.0000000000000000E+00
       &END RESTART_AVERAGES
     &END AVERAGES
     &PRINT
       &PROGRAM_RUN_INFO  LOW
       &END PROGRAM_RUN_INFO
     &END PRINT
   &END MD
   &CONSTRAINT
     &COLLECTIVE
       COLVAR  1
       INTERMOLECULAR  T
       TARGET     0.0000000000000000E+00
       &RESTRAINT
         K     5.0000000000000001E-03
       &END RESTRAINT
     &END COLLECTIVE
     &COLLECTIVE
       COLVAR  2
       INTERMOLECULAR  T
       TARGET     0.0000000000000000E+00
       &RESTRAINT
         K     5.0000000000000001E-03
       &END RESTRAINT
     &END COLLECTIVE
     &COLLECTIVE
       COLVAR  3
       INTERMOLECULAR  T
       TARGET     0.0000000000000000E+00
       &RESTRAINT
         K     5.0000000000000001E-03
       &END RESTRAINT
     &END COLLECTIVE
     &COLLECTIVE
       COLVAR  4
       INTERMOLECULAR  T
       TARGET     0.0000000000000000E+00
       &RESTRAINT
         K     5.0000000000000001E-03
       &END RESTRAINT
     &END COLLECTIVE
     &COLLECTIVE
       COLVAR  5
       INTERMOLECULAR  T
       TARGET     0.0000000000000000E+00
       &RESTRAINT
         K     5.0000000000000001E-03
       &END RESTRAINT
     &END COLLECTIVE
     &COLLECTIVE
       COLVAR  6
       INTERMOLECULAR  T
       TARGET     0.0000000000000000E+00
       &RESTRAINT
         K     5.0000000000000001E-03
       &END RESTRAINT
     &END COLLECTIVE
     &COLLECTIVE
       COLVAR  7
       INTERMOLECULAR  T
       TARGET     0.0000000000000000E+00
       &RESTRAINT
         K     5.0000000000000001E-03
       &END RESTRAINT
     &END COLLECTIVE
     &COLLECTIVE
       COLVAR  8
       INTERMOLECULAR  T
       TARGET     0.0000000000000000E+00
       &RESTRAINT
         K     5.0000000000000001E-03
       &END RESTRAINT
     &END COLLECTIVE
     &COLLECTIVE
       COLVAR  9
       INTERMOLECULAR  T
       TARGET     0.0000000000000000E+00
       &RESTRAINT
         K     5.0000000000000001E-03
       &END RESTRAINT
     &END COLLECTIVE
     &COLLECTIVE
       COLVAR  10
       INTERMOLECULAR  T
       TARGET     0.0000000000000000E+00
       &RESTRAINT
         K     5.0000000000000001E-03
       &END RESTRAINT
     &END COLLECTIVE
     &COLLECTIVE
       COLVAR  11
       INTERMOLECULAR  T
       TARGET     0.0000000000000000E+00
       &RESTRAINT
         K     5.0000000000000001E-03
       &END RESTRAINT
     &END COLLECTIVE
     &COLLECTIVE
       COLVAR  12
       INTERMOLECULAR  T
       TARGET     0.0000000000000000E+00
       &RESTRAINT
         K     5.0000000000000001E-03
       &END RESTRAINT
     &END COLLECTIVE
     &COLVAR_RESTART
           0.0000000000000000E+00
           0.0000000000000000E+00
           0.0000000000000000E+00
           0.0000000000000000E+00
           0.0000000000000000E+00
           0.0000000000000000E+00
           0.0000000000000000E+00
           0.0000000000000000E+00
           0.0000000000000000E+00
           0.0000000000000000E+00
           0.0000000000000000E+00
           0.0000000000000000E+00
     &END COLVAR_RESTART
   &END CONSTRAINT
   &PRINT
     &TRAJECTORY  LOW
       FORMAT  XMOL
       &EACH
         MD  200
       &END EACH
     &END TRAJECTORY
     &MIXED_ENERGIES  OFF
     &END MIXED_ENERGIES
     &RESTART  ON
       &EACH
         MD  200
       &END EACH
     &END RESTART
     &RESTART_HISTORY  OFF
     &END RESTART_HISTORY
   &END PRINT
 &END MOTION
 &MULTIPLE_FORCE_EVALS
   FORCE_EVAL_ORDER  1..13
   MULTIPLE_SUBSYS  T
 &END MULTIPLE_FORCE_EVALS
 &FORCE_EVAL
   METHOD  MIXED
   &MIXED
     MIXING_TYPE  ADIABATIC
     &ADIABATIC
       METHOD_PROPAGATION FSSH
       PRINT_MORE  T
       INITIALIZATION DIABATIC
       REPRESENTATION DIABATIC_BASIS
       ELECTRONIC_PARTIAL_STEP  5
       FIRST_DIABAT  1
       FIRST_ADIABAT  1
       SEED  641704875
       NUMBER_DIABATIC_STATES  12
       NUMBER_ORBITALS  1
       NUCLEAR_TIMESTEP     9.9999999999999992E-02
       CENTER_OF_MASS  T
       INDEX_ACTIVE_MOLS  1..6
       METHOD_COUPLING FROZEN_COUPLINGS
       &OPTIMIZATION
         DO_SPEEDUP_LJ  F
         DO_SPEEDUP_INTRA  F
         SURF_HOP_CHOICE TRIVIAL_HOP_CORRECT
         RK_PROPAGATION DIABATIC_RK_FAST
         REORDERING_STATES_USING_OVERLAP  T
       &END OPTIMIZATION
       &DECOHERENCE
         DECOHERENCE_CORRECTIONS DAMPING
         DECO_TIME EDC
         SPURIOUS_TRANSFER_CORR  T
         EDC_C     1.0000000000000000E+00
         EDC_E0     0.0000000000000000E+00
         THRESHOLD_TAU_FORCES     9.9999999999999995E-21
         TEMPERATURE_FG_WIDTH     3.0000000000000000E+02
         DECOHERENCE_CRITERION     9.9999999999999995E-07
       &END DECOHERENCE
       &ENERGY_CONSERVATION
         METHOD_RESCALING NACV
         METHOD_ADIABATIC_NACV FAST
         METHOD_REVERSAL ALWAYS
       &END ENERGY_CONSERVATION
       &METHOD_SITE_ENERGIES
         MULTI_STATES  T
       &END METHOD_SITE_ENERGIES
       &FROZEN_COUPLINGS
1   1   0.0
1   2   0.001469972
1   4   0.002
2   2   0.0
2   3   0.001469972
2   5   0.002
3   3   0.0
3   6   0.002
4   4   0.0
4   5   0.001469972
4   7   0.002
5   5   0.0
5   6   0.001469972
5   8   0.002
6   6   0.0
6   9   0.002
7   7   0.0
7   8   0.001469972
8   8   0.0
8   9   0.001469972
9   9   0.0
10   10   0.0
10   11   0.00055124
11   11   0.0
11   12   0.00055124
12   12   0.0
         CONNECTIVITY_FRZ_C  T
         INTERACTION_NUMBER  26
       &END FROZEN_COUPLINGS
       &PRINT
         &COEFFICIENTS  LOW
           &EACH
             MD  1
           &END EACH
         &END COEFFICIENTS
         &POPULATIONS  LOW
           &EACH
             MD  1
           &END EACH
         &END POPULATIONS
         &ADIAB_POPULATIONS  LOW
           &EACH
             MD  1
           &END EACH
         &END ADIAB_POPULATIONS
         &ADIABAT_ENERGIES  SILENT
           &EACH
             MD  1
           &END EACH
         &END ADIABAT_ENERGIES
         &SITE_ENERGIES  SILENT
           &EACH
             MD  1
           &END EACH
         &END SITE_ENERGIES
         &OFF_DIAGONALS  SILENT
           &EACH
             MD  1
           &END EACH
         &END OFF_DIAGONALS
         &PSEUDO_HAMILTONIAN  SILENT
           UNIT hartree
           &EACH
             MD  1
           &END EACH
         &END PSEUDO_HAMILTONIAN
         &SH_INFO  SILENT
           &EACH
             MD  1
           &END EACH
         &END SH_INFO
       &END PRINT
     &END ADIABATIC
     &PRINT
       &PROGRAM_RUN_INFO  OFF
         &EACH
           MD  200
         &END EACH
       &END PROGRAM_RUN_INFO
     &END PRINT
   &END MIXED
   &SUBSYS
     &CELL
       A     6.0000000000000007E+01    0.0000000000000000E+00    0.0000000000000000E+00
       B     0.0000000000000000E+00    6.0000000000000007E+01    0.0000000000000000E+00
       C     0.0000000000000000E+00    0.0000000000000000E+00    6.0000000000000007E+01
       PERIODIC  XYZ
       MULTIPLE_UNIT_CELL  1 1 1
     &END CELL
     &COORD
CK   -3.3954213343188999E-01    5.2587208655940054E-01    2.6124266380509384E+00
CM   -1.0142427129779219E+00    9.0357076434107675E-01    1.4003365475715157E+00
CT   -4.8146350155032225E-01    4.6539839572059832E-01    1.1931151380332727E-01
CM   -8.9422734627822997E-01    9.9408286621731523E-01   -1.1513205482869953E+00
CK    5.8606994243841581E-01   -4.4307835237289916E-01    2.5363897762167915E+00
HA   -5.7071487009093114E-01    9.3175062848154355E-01    3.5853552647397557E+00
HA   -1.8136356103407507E+00    1.6523136736471815E+00    1.3154723123206828E+00
HA   -1.5429316252367244E+00    1.8526194847296951E+00   -1.1514778679562092E+00
HA    1.1459608453603511E+00   -8.4030880718119949E-01    3.4413671379948370E+00
CT    6.0224782654712872E-01   -5.1739237618203460E-01    1.2480835346485183E-01
CK   -4.1627785574855469E-01    3.6262779121455924E-01   -2.3807885317275232E+00
CM    1.1070854964021613E+00   -1.0095037461966525E+00    1.2744956475591540E+00
CM    1.0936718318421237E+00   -1.0694611570962445E+00   -1.0828284937069332E+00
CK    6.4451931207682955E-01   -5.1313332054962235E-01   -2.3959406757153672E+00
HA   -9.0446070371530940E-01    7.3532912890614144E-01   -3.3027686703782329E+00
HA    1.8510421800560495E+00   -1.8091381417167278E+00    1.1456013341909126E+00
HA    1.9382593034291593E+00   -1.6841621095817572E+00   -1.1246299802060655E+00
HA    1.0271709458753402E+00   -8.3105700389382775E-01   -3.3119143783196248E+00
CT    5.0247302142523473E+00   -8.6654721253482603E-01    2.3466934815398344E+00
CT    5.0538720256225389E+00   -1.5400711487743954E+00    1.1457084762444620E+00
CT    5.0894315421785974E+00   -7.7572569826569437E-01   -3.7980173118611196E-02
CT    4.8944077717967751E+00   -1.3949269821194137E+00   -1.3005022419830823E+00
CT    5.1271853468531132E+00    5.5867647933581754E-01    2.4347895505904309E+00
HA    4.8713468946641640E+00   -1.4216819208791491E+00    3.3146059644269488E+00
HA    4.9118922216613559E+00   -2.5640433346321974E+00    1.0846925451739760E+00
HA    4.5904113228324332E+00   -2.5106152843903105E+00   -1.3076533470666569E+00
HA    5.2785532894730407E+00    1.1764858917232794E+00    3.3192304800472368E+00
CT    5.2905170785834574E+00    6.0138941610809804E-01    4.5395018019652393E-02
CT    5.0125477098968902E+00   -5.9841398224206410E-01   -2.4713259637284177E+00
CT    5.4562934716490599E+00    1.2774227403652556E+00    1.2982821718022364E+00
CT    5.4870073899849396E+00    1.2770401847149655E+00   -1.1235107708745773E+00
CT    5.4475658635878244E+00    7.0774979575174701E-01   -2.3976974738421690E+00
HA    4.8049483268068975E+00   -9.3195166621928860E-01   -3.5039401283250613E+00
HA    5.6637088064636751E+00    2.3843611630735086E+00    1.3246131006418864E+00
HA    5.8923659707334020E+00    2.3198948988997725E+00   -1.0483761237709934E+00
HA    5.5585437887749354E+00    1.3007459433841118E+00   -3.3831081677256356E+00
CT    1.0248310668022722E+01   -8.2481736533067362E-01    2.4362899515380860E+00
CT    1.0499176054446373E+01   -1.4336886362781882E+00    1.1995865795586995E+00
CT    1.0236894883537177E+01   -6.3821268752925342E-01    4.9531896032053442E-02
CT    1.0613037870001158E+01   -1.1690704352495696E+00   -1.2523105553286311E+00
CT    9.5341202399774367E+00    4.0998295951007718E-01    2.4654087595655283E+00
HA    1.0406858624354118E+01   -1.4050330366805805E+00    3.3555709273333427E+00
HA    1.1027373241932962E+01   -2.4141773003284506E+00    1.1901352097507030E+00
HA    1.1084405962537989E+01   -2.1052431006114349E+00   -1.3991186794821280E+00
HA    9.0391663086822636E+00    7.1586408126000312E-01    3.3851380695571249E+00
CT    9.6727326404564895E+00    5.9741146467863471E-01    1.0897798968580588E-01
CT    1.0252690734811221E+01   -5.3455671661369741E-01   -2.4449495992714785E+00
CT    9.2489252054916840E+00    1.1508926174917036E+00    1.2806051211850582E+00
CT    9.3935621300849697E+00    1.2766612683942484E+00   -1.0746753944319816E+00
CT    9.6894704810977714E+00    7.5708476823793203E-01   -2.3473841374516358E+00
HA    1.0221212346439122E+01   -1.1516010125771934E+00   -3.3462092945721529E+00
HA    8.6786615352313259E+00    2.0117053328119652E+00    1.3185326328408520E+00
HA    8.9673777582594809E+00    2.2948487441387289E+00   -9.3486675149008980E-01
HA    9.5707942638877732E+00    1.4047405381496629E+00   -3.2052201167962369E+00
CC    1.5798620232949439E+01   -5.1176666644361846E-01    3.4889662507964738E+00
CB    1.6379737611482980E+01   -7.8621138996979634E-01    2.2598583099766505E+00
CP    1.5726381301334701E+01   -4.3342333203389166E-01    1.0477689131843129E+00
CA    1.6310333513864961E+01   -8.2379392425496345E-01   -1.9853788776698189E-01
CP    1.4403952016939170E+01    1.2826498832991345E-01    1.1140787159488106E+00
CB    1.3850772664085532E+01    3.9561813648638267E-01    2.4023613190762405E+00
CC    1.4539143789284084E+01    4.9161741624755832E-02    3.5783629795353917E+00
H    1.6259259909108579E+01   -9.0711313327221232E-01    4.3959551264429324E+00
H    1.7260009327314716E+01   -1.5126098910675501E+00    2.2420337024005441E+00
H    1.7261457380380392E+01   -1.2713338688216609E+00   -2.6298342019083837E-01
H    1.2918765466107532E+01    9.6736436264962400E-01    2.4349770279905081E+00
H    1.4167545894630944E+01    2.6433216041038882E-01    4.5622104789859268E+00
CP    1.5620886202712470E+01   -5.5068172013039685E-01   -1.4324803241956210E+00
CA    1.3789207117065319E+01    4.7819412172804754E-01   -1.2750906973807447E-01
CP    1.4398849047561640E+01    2.3688877192705030E-01   -1.3808142708383255E+00
CB    1.6115332315846739E+01   -9.2575072966078686E-01   -2.6543669719625318E+00
H    1.2808500411462362E+01    8.7926435618115018E-01   -9.0939771550448661E-02
CB    1.3736339302612377E+01    5.9956634262042841E-01   -2.5795524401676322E+00
CC    1.5391401417551949E+01   -5.6286589588104396E-01   -3.8495451386063979E+00
H    1.7064798719356176E+01   -1.4442964369081477E+00   -2.7313876633907794E+00
CC    1.4205228265521312E+01    1.2019425386327784E-01   -3.8444521582186311E+00
H    1.2689926161781745E+01    9.3723093229502175E-01   -2.4954728364631622E+00
H    1.5780961356693101E+01   -8.8466597772219557E-01   -4.7952952013860486E+00
H    1.3617065038168372E+01    1.9670415569585153E-01   -4.7620693375541601E+00
CA    2.0167005551620296E+01   -5.7971850415627446E-01    3.6453607906987862E+00
CA    2.0661435561965209E+01   -1.2363778657939974E+00    2.4804522289249404E+00
CA    2.0342765806917743E+01   -6.6048422188479805E-01    1.2141913240761617E+00
CA    2.0750224537426767E+01   -1.3431557065142494E+00    5.8549900360703740E-02
CA    1.9601248212452266E+01    5.1053601884156907E-01    1.1134626389051794E+00
CA    1.9305331125099332E+01    1.2464234265436562E+00    2.3114958805670338E+00
CA    1.9520644332140211E+01    6.6452061967708043E-01    3.5942170133396467E+00
H    2.0342412180834401E+01   -1.0436463493433574E+00    4.6660579769928505E+00
H    2.1191678501332689E+01   -2.1981992780907302E+00    2.6051667931661493E+00
H    2.1402740711361997E+01   -2.1903255494923748E+00    8.3822022992199541E-02
H    1.8775871543396718E+01    2.2024396244306783E+00    2.3301156625396109E+00
H    1.9241153478812592E+01    1.1926249885783287E+00    4.4866272129403386E+00
CA    2.0421021803105010E+01   -7.9744522896928660E-01   -1.2101324097185138E+00
CA    1.9467578480774595E+01    1.2091825032586239E+00   -1.2580684374986348E-01
CA    1.9857050663065408E+01    4.9967471357265975E-01   -1.3036249339353758E+00
CA    2.0733278521891780E+01   -1.5206081784180407E+00   -2.4147567843263098E+00
H    1.8893587563338482E+01    2.0903265678681029E+00   -1.5799378995927191E-01
CA    1.9586306458852231E+01    1.1048713963315469E+00   -2.5419410119629831E+00
CA    2.0525194670843330E+01   -8.6068430747372104E-01   -3.6852301692231375E+00
H    2.1163498597059643E+01   -2.5392499418283085E+00   -2.4852940946580224E+00
CA    1.9824288471237889E+01    3.8319080447013870E-01   -3.7104678535466036E+00
H    1.9000688068465966E+01    1.9831102299385936E+00   -2.4440463317487904E+00
H    2.0777240177906098E+01   -1.3205373213536553E+00   -4.6132693220937968E+00
H    1.9664212246510619E+01    8.6338950147227644E-01   -4.6424769603919733E+00
CA    2.5173282268843188E+01   -6.8392299779126464E-01    3.8632027498439228E+00
CA    2.5702875476262552E+01   -1.1282158677205418E+00    2.6518182430635244E+00
CA    2.5277270392640411E+01   -6.9762839695336487E-01    1.3876615139038984E+00
CA    2.5805048552170327E+01   -1.2455699765820480E+00    2.2809467846966960E-01
CA    2.4280514459698797E+01    2.9872697386356273E-01    1.2833533028487942E+00
CA    2.3765615677619131E+01    7.7754132309248603E-01    2.4798615105913075E+00
CA    2.4155853631601836E+01    2.5666435352445649E-01    3.7437005323701795E+00
H    2.5574099048931537E+01   -1.0899607532641948E+00    4.7925442869617267E+00
H    2.6493887268206890E+01   -1.7936228244372758E+00    2.7320319004461058E+00
H    2.6533135140913419E+01   -2.1173998904587679E+00    3.2893492295860571E-01
H    2.2884502245602988E+01    1.4511664670983890E+00    2.5018979291739698E+00
H    2.3784793296494900E+01    6.9133941815456779E-01    4.7113052111493028E+00
CA    2.5362070143398036E+01   -8.0602010702390769E-01   -1.0674833760999562E+00
CA    2.3872599326619657E+01    8.4199015538727351E-01    2.2920251757705137E-02
CA    2.4460877131743946E+01    3.5216464551092796E-01   -1.1627937268512938E+00
CA    2.5852307103370620E+01   -1.3571142382165629E+00   -2.2891004472305592E+00
H    2.3241422244642745E+01    1.7140437759558285E+00   -8.5815682527732251E-02
CA    2.4045471232936421E+01    8.4692576849294110E-01   -2.3981801143953705E+00
CA    2.5425115367310507E+01   -7.4371782615674864E-01   -3.5123492166425629E+00
H    2.6447877959824250E+01   -2.2219561322953085E+00   -2.1707125937702973E+00
CA    2.4524065714869270E+01    3.0048255938576235E-01   -3.5922337600441301E+00
H    2.3466671145969400E+01    1.7073537707056099E+00   -2.4407329183206792E+00
H    2.5830346582801781E+01   -1.0911285903815888E+00   -4.4774390699867928E+00
H    2.4203334714522470E+01    7.1603508548407924E-01   -4.5569744367486882E+00
Ne   -2.8961294290102369E+01   -3.1783287358932125E+02   -1.6937103359095670E+02
Ne   -2.9946113547328667E+02    1.6186052478531224E+02   -5.7618206654376102E+01
Ne   -2.5423325596734171E+02   -2.1640060425274137E+02   -1.6699031120352544E+01
Ne   -3.7238126447412486E+02   -1.0547809027615848E+02   -6.2453348075681554E+01
Ne    2.5586206143659260E+02   -2.4750778317118318E+02   -4.1120130894273970E+01
Ne   -9.2273388845009549E+01    1.7932273659562956E+00   -2.7267247861158648E+02
Ne   -4.3961180334982657E+02    3.2897425472440904E+02   -4.2396409564887205E+02
Ne   -2.8317317865037062E+01   -1.5387162569564958E+02   -1.5980482435058073E+02
Ne    1.7490986592094006E+02    2.8657470987709829E+01    2.9225152721983221E+02
Ne   -1.6294470141786800E+02    1.4263439739027157E+02   -4.5176091766484632E+01
Ne   -4.1312890676081963E+02    6.5426849809091493E+01    2.8138160894247312E+02
Ne   -8.5483759018476917E+00   -2.2964217158864645E+02   -1.4906380556294769E+02
Ne    1.4237646237244351E+02   -5.5200029809484661E+01    2.0922927397569609E+02
Ne    1.0766919345899251E+02   -2.4616307440960983E+02    8.9409330969876535E+01
Ne    4.4849623378399812E+01    1.9008133447315294E+02    1.6653046461195598E+02
Ne   -2.0238948982112831E+02   -9.9697767867268041E+01   -2.6076808846132656E+02
Ne   -1.8698368088340729E+02    2.1644628003477024E+02    1.8927301064710744E+02
Ne    7.9388487313775116E+00    3.0831042618896571E+00   -1.4829503099899409E+02
Ne   -3.3041076194166101E+02   -1.2291162752294154E+02    8.7071899115980145E+00
Ne   -8.8203127092898015E+01   -2.8345485535828676E+01    5.5130647655218006E+01
Ne    3.3777451404076135E+02    2.5527873770816174E+02    2.8068605899750264E+02
Ne    4.7515962013861360E+02    4.5757780259648804E+01    2.7308713763532427E+02
Ne   -3.5355534531908023E+02   -2.0345534756442481E+02   -1.3847375987912221E+02
Ne   -9.6101558047014763E+01    1.7958039732679495E+01    1.3330608642060847E+02
Ne   -3.8887614205822626E+02    2.5302669347614878E+02    3.8748804709926731E+01
Ne   -2.0736627709815252E+02   -2.4167176856695957E+02   -3.4830220914877501E+01
Ne   -1.1350801916118119E+01   -1.3906114383902403E+02    2.5454342886139781E+01
Ne   -2.2072996067892103E+02   -2.4916140652703721E+01    2.0866558569301941E+02
Ne    2.7280583053297056E+02   -1.1072845184230935E+02    9.1694042902251169E+01
Ne    4.6453450435565507E+01   -9.9141209578418582E+01   -2.1713163548319008E+02
Ne   -2.5542008625613167E+02   -3.4869233448214345E+02   -9.2957558026970105E+01
Ne    6.1680214564673683E+01   -3.4915243357321731E+02    1.2830398013991251E+02
Ne   -2.1514957326467629E+02    4.6123633978210833E+01    3.1907243810958272E+02
Ne    4.9257952535997397E+01   -1.6424899068515504E+02   -4.9105522805811393E+02
Ne   -9.5078800825731221E+01   -1.4617038810376517E+01   -1.3922509548751003E+02
Ne   -3.7548151124610666E+02    1.3101213917916547E+02    5.4429441030960038E+02
Ne   -1.3093517963494594E+02   -1.8805824097842651E+02    6.2719261877622723E-01
Ne    2.3283699547763851E+02   -2.7233886549599089E+02   -3.6463643998178907E+02
Ne   -2.4886772301538070E+02   -8.5460243534101039E+01   -1.6200357837983105E+02
Ne    4.6725193805752480E+02    3.4584201733846487E+02    1.1774875262712644E+02
Ne   -2.8119888966471905E+01    5.0669747610039494E+01    1.9803566843892628E+02
Ne   -1.9425772330784457E+02   -7.6171295768963873E+01   -7.1098619198076179E+01
Ne   -1.1810459739233872E+02   -2.7825069900755346E+02   -2.9271797978837685E+02
Ne   -4.4002800306514040E+01   -1.5661319154835041E+02    2.4387641963849160E+02
Ne    4.9743126229353925E+02    2.3537290364263345E+01    1.8975596266921124E+02
Ne   -2.6304793196412282E+02    2.2473674911609859E+02    1.0827097920274329E+02
Ne   -3.9808606017837701E+02   -1.1870083672370919E+02    3.8817859241351994E+02
Ne    4.5901453979056032E+02    4.3806288155772694E+02   -1.6962278493801944E+02
Ne   -6.8718174982024422E+01   -1.9135752253722947E+02    4.3141498563955486E+02
Ne    6.0311137848799626E+02    1.4916724265492013E+02    2.5799038884450874E+02
Ne   -8.5282727590796696E+01   -1.0662684214771431E+02   -3.1004517692970410E+02
Ne    1.3753070738488697E+02    2.4622960035717909E+02   -2.3017220846182735E+02
Ne    1.1529626036912883E+02   -2.1451331041156831E+02    2.3675240203180851E+02
Ne   -6.2508882663256236E+02    4.0812338808632819E+02   -6.0698791785918513E+02
Ne   -3.0352555652757928E+01    5.2682617421594848E+01   -8.2973363212835608E+01
Ne   -1.9764793617481408E+02   -1.8005560193605856E+01   -3.9776211521694313E+02
Ne    9.9980998463581287E+01    8.7918584819766735E+01   -1.3563437083562272E+02
Ne    4.4479492422856502E+01   -2.7314643022816153E+01   -2.7026833370798039E+02
Ne   -3.8833257495838438E+02    1.4237857841644703E+02   -5.4498968100600780E+02
Ne    1.6868134881810934E+02    1.4042578524621308E+02   -9.5217627253871754E+01
Ne    1.3041771969905608E+02   -2.3437326607402355E+02   -1.3011343366066401E+02
Ne    1.3162330595051966E+02    5.1599029340257255E+02    4.3843715212864561E+02
Ne   -8.4196963356756001E+01    8.9511859792804060E+01   -1.3330087649161197E+02
Ne    9.9886810665435021E+01   -2.4576718287676067E+02   -5.2296287891015453E+01
Ne    3.6742534610517004E+02    4.9567456717269216E+01   -4.0726703184622909E+02
Ne   -1.8512712058986452E+02    5.0321137850639005E+01   -1.5532809176352995E+01
Ne    1.6757141319970714E+01   -3.2383828443839758E+02    1.0359590296268555E+01
Ne   -1.4809354370442188E+02   -5.4049024981910485E+01    4.5422052939161262E+01
Ne   -2.1258086368110508E+01    1.1150189485515382E+02   -3.0598303096377344E+02
Ne    2.7469902607955611E+01    1.2206475057218520E+02    4.8213399754418020E+01
Ne    9.0080233673337105E+01   -1.7745577462455071E+02   -7.9309647015813184E+01
Ne   -1.9114481889376080E+02   -1.5678427419038249E+02    3.1523142738454351E+02
Ne   -5.3088739926254118E+02    4.3566055525431250E+02    1.0333915702478969E+02
Ne    3.3849906833097879E+02    2.0788476598595065E+02    4.0833785518296551E+01
Ne   -2.2947003396792536E+02   -2.8869295281241637E+01   -5.0345910407767413E+01
Ne   -1.2346460177536362E+02    5.0415459949966635E+02   -4.0617552033838786E+02
Ne   -9.8322219486513475E+01   -6.4091895910171260E+01   -3.5555812085055756E+01
Ne   -1.6070353153907149E+02   -2.2648032312742365E+02   -3.8892134924857589E+02
Ne   -6.2707491655558535E+01   -1.0994691841915652E+02   -1.9505146974614783E+02
Ne   -2.2358152864928354E+02    1.6636752380436550E+02   -1.1235307420720996E+02
Ne   -1.3226728435975633E+02    4.7373466837522579E+02   -2.3694277198776248E+02
Ne    1.6355796112728598E+02    1.9324155468267952E+02    3.7844649645615425E+02
Ne   -1.5300034528322399E+02    1.5814037133222880E+02    1.4055863011866525E+00
Ne    1.1514791413971279E+01    1.8936448402634198E+02    5.7601633016560743E+02
Ne    2.5449803163249111E+01    3.4090284330514542E+01   -4.9835332516591188E+02
Ne    1.3154527917026516E+02   -4.1150377038204752E+01   -1.6127715746202782E+02
Ne   -2.1672335196145745E+01    2.0270760155326096E+02   -1.1646406809577476E+01
Ne   -5.5820736003126129E+01    1.7136440095733002E+02   -1.7796853028261410E+02
Ne    5.8692165927070072E+01    7.2780127081023835E+01    9.6980845891745687E+01
Ne    1.4791052117101592E+02    1.1681423195790889E+02    5.5112070800744732E+02
Ne    3.6463757220376232E+02    2.4860121629231281E+02   -1.6680808786071759E+02
Ne    1.9880351766373488E+02    9.1718752795487415E+00    9.3833935003093401E+01
Ne   -2.3265539276682478E+02    2.1544109859741769E+02   -3.4894535984637616E+02
Ne   -3.3782620198582322E+01   -2.4710195231301256E+01    3.0694440883645370E+01
Ne   -2.1328625741254638E+02   -2.6110524740723429E+02    1.5886384784896234E+02
Ne    4.9373139609513748E+02   -4.4356921642299568E+01    2.0670663588853100E+02
Ne   -1.7728146459429539E+02    2.2934658998570555E+02   -3.5524404752259488E+02
Ne    5.9160172973011655E+01   -4.5530348521856695E+01   -4.5537021362762596E+02
Ne    2.7409918700022327E+01    2.2598166549486348E+02    2.9850203008490933E+01
Ne   -7.3571452056956034E+01   -5.1282147781916628E+01    2.0369673818355128E+02
Ne   -1.8596612513551150E+02    2.5320966365673087E+02    2.1111032133750294E+02
Ne    2.0116499911029013E+02    9.9368794356050927E+01   -3.6124510853310554E+01
Ne    2.1767520785663217E+02    1.3047586714815472E+02   -1.6411437113370124E+02
Ne   -1.8392425431656989E+02   -1.7224168733253424E+02   -3.2717678959775554E+02
Ne   -2.0547584158649119E+01    1.4507050629278848E+02    1.5634226737802885E+02
Ne   -3.3672258256997577E+02    1.0572757465205036E+02   -1.8867017256607042E+02
Ne    2.7984245222238656E+02    1.0025352163894078E+02   -7.8240493376290857E+01
Ne   -4.3727901610145256E+02   -8.7564858899374798E+00   -6.7852903822603537E+01
Ne    2.3340203685212469E+01    1.9314645108864286E+02   -2.3189613311348913E+02
Ne    6.4919246846696592E+02    8.9605881672455709E+01    1.7098039098256574E+01
Ne    2.5773696700661640E+02    1.1291525035287020E+02   -2.2495901596007457E+01
Ne   -5.0956844188504377E+01   -1.9156301960847591E+02    2.2572445934647573E+02
Ne    5.5632707914402062E+01   -6.9055057574722775E+02   -1.9888067741665301E+02
Ne   -1.7501946640373424E+02    5.7066424059526514E+02   -1.2976749051762414E+02
Ne   -5.0302647871595639E+02   -8.5053819347508494E+01   -3.1133638726629761E+02
Ne   -3.0942689168584980E+01    1.8054586020453860E+02   -1.7884016543055003E+02
Ne   -1.9298694485608576E+02   -5.2639729579685216E+01    2.7830654244710644E+02
Ne   -1.1414006328341478E+02    2.8713283546787653E+02    3.8954619929596070E+01
Ne    2.3025056942659626E+02    7.5326652287703197E+01   -4.5401255698196536E+01
Ne   -2.7239591538577747E+02   -3.2406887452857853E+02   -1.4047156564545216E+02
Ne    1.0198275105430336E+02    1.2073586888747457E+02    3.3015485459342489E+02
Ne   -2.9094400674108118E+02   -1.1351354459734192E+02   -3.1564794219502964E+01
     &END COORD
     &VELOCITY
           2.1562811171547323E-04    2.2941361666034804E-05    9.6278928310619078E-05
          -2.5151826887896803E-04   -4.9980501289021272E-05   -2.1949344066438005E-05
          -6.6654440231520863E-05    9.8401525259845244E-05   -1.6341717821664729E-04
          -4.9865531698834538E-04   -1.0340828003888330E-04    2.8372697221922812E-04
           2.5572186344561469E-04    2.2168727606658770E-05   -1.2703196547264847E-04
          -9.8199891935669319E-04   -8.4821333471126479E-04   -3.9479063970148054E-04
           2.3868947759578697E-04   -5.3940300574935221E-04   -4.7365492735900697E-04
           8.5134663476457218E-04    5.7362248646225175E-04    6.0539269745335435E-04
           1.4656887756779825E-03   -1.8664882013601255E-03   -7.4336641410222123E-04
          -4.5525182914149753E-04    4.4921273560698618E-04   -2.5043929269149369E-04
           2.8762088035545963E-04   -1.7259879126452925E-05   -7.3911498589839504E-05