   22800
 i =   501000, time =   501000.000, E =        49.3648082888
  S         5.1795623394       -0.0015727070        8.4505069415
  S         3.6864732081       -0.9851118872        4.2864343652
  S         0.7054690861        1.3114298928        1.7509169005
  C         6.3041017198       -1.2668111004        8.8495871981
  C         6.4888875117       -2.1382261081        7.8178306723
  C         5.5671219520       -1.8064239835        6.7359557535
  C         4.8008329462       -0.7026023408        6.8228812207
  C         3.8671582728       -0.2663525463        5.8608924541
  C         3.1122279705        0.8881454658        5.9535288378
  C         2.3782317993        1.1614643324        4.7281347516
  C         2.4791311542        0.2090225694        3.8005435223
  C         1.7469162914        0.2038186726        2.5074744033
  C         2.0268393046       -0.8307342713        1.6808491779
  C         1.3135939537       -0.8363848431        0.4366372165
  C         0.5020909520        0.2777832202        0.3486958830
  H         6.7539823455       -1.1927739512        9.8204881657
  H         7.3727711572       -2.8062955141        7.8023475049
  H         5.6387940506       -2.3972835535        5.7888595345
  H         3.1296769249        1.5793701676        6.7079617167
  H         1.7988518203        2.0994376259        4.5722567237
  H         2.8141317858       -1.5722216353        1.8868352035
  H         1.4746410824       -1.5680227309       -0.3819002896
  C        -0.3540284850        0.4648970937       -0.7804977702
  S        -0.5250149609       -0.6282017815       -2.1832060562
  C        -1.8155042826        0.4526888463       -2.8028763550
  C        -2.5827366751        0.1673897655       -3.9940747539
  S        -4.0412597026        1.0990440187       -4.5541230605
  C        -4.3148462553       -0.1465500557       -5.8040973464
  C        -5.3969297242       -0.1508045572       -6.8560630349
  S        -5.6156133478       -1.2253145086       -8.2044354981
  C        -7.2307567895       -0.5522672200       -8.4107279008
  C        -7.5014522543        0.4969946753       -7.5932904723
  C        -6.3958589148        0.7924064633       -6.7545141184
  H        -6.4226953832        1.5169003590       -5.9612141489
  H        -8.4297762556        1.1123424606       -7.5939768590
  H        -7.8845937160       -0.9414049456       -9.2309504638
  C        -3.3305820335       -1.1045241763       -5.8419409402
  C        -2.4116148278       -0.9472092395       -4.7308981035
  H        -1.6488953486       -1.6280326043       -4.5639620720
  H        -3.3807901725       -1.9425612466       -6.5186600947
  C        -2.0363354669        1.5447375546       -1.9578706123
  C        -1.1779679349        1.5479729107       -0.8229631104
  H        -1.3642290323        2.2939408890        0.0068269247
  H        -2.7166539385        2.3526212308       -2.0804836495
  S        -0.7771791106        3.5898559024       -8.1413368863
  S         1.0188144149        1.6288557286       -4.5446638727
  S         4.0595516245        3.9751005005       -2.1238259889
  C        -1.4297687580        2.3132057500       -9.1010924544
  C        -1.2871346324        1.1258769873       -8.3907262476
  C        -0.6963393615        1.2167499252       -7.1197334999
  C        -0.2854533394        2.4692672641       -6.8368116641
  C         0.5226733256        2.8498871010       -5.7163143212
  C         1.0365757024        4.1144582845       -5.4845060695
  C         1.9703522874        4.1351716582       -4.5000988712
  C         2.0689673992        2.9107620682       -3.9088833660
  C         2.9228233809        2.7663175551       -2.8054992606
  C         2.9663129426        1.5816710589       -2.0450124369
  C         3.7787984045        1.7356194513       -0.8666921403
  C         4.4367439908        2.9295316218       -0.7149619668
  H        -1.8711246731        2.5474399356      -10.0625624982
  H        -1.5866577620        0.1912310546       -8.8675682192
  H        -0.4784342431        0.3659787737       -6.5413457933
  H         0.8834735619        4.9120898837       -6.0435428253
  H         2.5864832182        4.9983973807       -4.2159671549
  H         2.1268748361        0.8123216772       -2.2243461878
  H         3.8288538590        0.8593602024       -0.1989890177
  C         5.1473053617        3.2612001572        0.5224794408
  S         5.2322260812        2.1641433296        1.8991633206
  C         6.4149381794        3.1746319092        2.6590713527
  C         7.2066157336        2.8677894574        3.8063043542
  S         8.2876267719        3.9873265880        4.6950467136
  C         8.4762855314        2.7131274195        5.8796259163
  C         9.2489493179        2.8228176251        7.0537103758
  S         9.6480704188        1.5354591693        8.1362617620
  C        10.8225650439        2.5268783097        8.9145201195
  C        10.9179929902        3.7737809940        8.4034171122
  C        10.0227487191        3.9323566598        7.2626252868
  H         9.8533858899        4.9273878506        6.9206096817
  H        11.4982631776        4.6360516604        8.8468905608
  H        11.2743748783        2.1643302281        9.8431421804
  C         7.7219616665        1.5948059645        5.6719524151
  C         6.9551103383        1.7150883275        4.4963583069
  H         6.3024372469        0.9544955606        4.1874653056
  H         7.6961999100        0.6359886210        6.3333705822
  C         6.6524857935        4.2790677057        1.9114575718
  C         5.9320082252        4.3966109008        0.6898923020
  H         6.0078044934        5.2396831298       -0.0522422989
  H         7.4378817567        4.9650533792        2.1824592613
  S         4.8936287449        6.3698270740        8.5757046956
  S         3.6741257889        4.7224525946        4.4837759055
  S         0.3698339154        6.6657240086        1.9954637352
  C         5.8868598366        5.0942499853        9.3035832778
  C         6.0793337565        4.0784085060        8.4238774887
  C         5.5376711874        4.2281197469        7.0795913320
  C         4.7070218654        5.3557699541        7.0873963042
  C         3.9391131856        5.7449865449        5.9319852191
  C         3.0396093306        6.8245525804        5.9559531800
  C         2.1575450216        6.8400224124        4.8106326704
  C         2.4035491220        5.8282112640        3.9087239051
  C         1.7705185900        5.7268777415        2.6229788003
  C         2.1092945285        4.7042017320        1.7771099581
  C         1.3314788436        4.8197541122        0.5438732229
  C         0.4291573641        5.8373527324        0.5051323628
  H         6.1050593306        5.1798834239       10.3649226792
  H         6.6304440349        3.2206574729        8.6813913577
  H         5.6162043932        3.5186741041        6.3121514897
  H         3.0419484788        7.6418684231        6.7338988433
  H         1.4734243821        7.6252814019        4.6401270535
  H         2.9423986206        3.9715684696        1.8558188993
  H         1.5129087359        4.2009747055       -0.2907099953
  C        -0.3532157700        6.0467167885       -0.6424406214
  S        -0.4227847791        5.0797430937       -2.1358903975
  C        -1.7475375688        6.1243580036       -2.7009320610
  C        -2.6376570205        5.9194404922       -3.8377821320
  S        -3.9370501513        6.9201145013       -4.4370306388
  C        -4.1527834734        5.7183621679       -5.7400195262
  C        -4.9808005988        5.9438305500       -6.8774732482
  S        -5.0852072858        4.8530096599       -8.1966618462
  C        -5.9441078586        6.0622957577       -9.1703153109
  C        -6.1571552201        7.1639469995       -8.3871094481
  C        -5.6238978499        7.1360637105       -7.0851611935
  H        -5.7048166743        7.9107147081       -6.4176708501
  H        -6.7541021363        8.0171878448       -8.6910264294
  H        -6.3942786751        5.8419915000      -10.1560747799
  C        -3.3682552543        4.6064103117       -5.7104841034
  C        -2.4775194527        4.7384286073       -4.5790657593
  H        -1.7684958216        3.9898110674       -4.4112388721
  H        -3.4032787546        3.6931460701       -6.3447097721
  C        -1.9575815188        7.1883493816       -1.9241196199
  C        -1.2281554013        7.0837930325       -0.6404195400
  H        -1.2788275930        7.8457019932        0.1288987225
  H        -2.7384070737        7.9119762816       -2.0898847177
  S        -0.4778703760        9.5985363531       -8.2189629780
  S         1.0256115363        7.3211868196       -4.4444626967
  S         4.0678936824        9.4820392121       -1.9094187112
  C        -1.5663376493        8.3891868070       -8.9384185404
  C        -1.6848703291        7.2614590759       -8.1819516013
  C        -0.8305703599        7.1983400560       -7.1114375105
  C        -0.1088653737        8.3761885999       -6.9491590325
  C         0.7340736938        8.4621644245       -5.7783678644
  C         1.5113014328        9.5943875693       -5.6472773056
  C         2.3253710632        9.6321188554       -4.4853985878
  C         2.1324678924        8.5001190769       -3.7046291193
  C         2.8732207413        8.4093176583       -2.4634217836
  C         2.8531287001        7.2835713018       -1.6857492938
  C         3.7095231174        7.3741091694       -0.5905868508
  C         4.3647584170        8.5736031942       -0.4731345096
  H        -2.2461016026        8.6972916755       -9.7533156286
  H        -2.3082386513        6.4303502447       -8.4320413111
  H        -0.7133262685        6.4008173406       -6.4725554622
  H         1.5313788657       10.4711628203       -6.3297817128
  H         2.9359274025       10.5029381134       -4.2737880964
  H         2.3849435941        6.3488598691       -1.9198092209
  H         3.7341740888        6.6642521964        0.1607927654
  C         5.2371279012        8.8333816318        0.6958600133
  S         5.4184394302        7.7825662495        2.1043064787
  C         6.6646506502        8.8409255945        2.7551989650
  C         7.3169875167        8.5907316096        3.9696583588
  S         8.4995212012        9.6098556827        4.7830609118
  C         8.6776852189        8.4321683745        6.0772624091
  C         9.6376683788        8.4102028633        7.0917896671
  S         9.8006700018        7.2495254858        8.4507350246
  C        10.9351022119        8.3921416652        9.1573050941
  C        11.2310354079        9.5769219245        8.4361865696
  C        10.3976361421        9.5672903671        7.2389846591
  H        10.3739845238       10.4116907094        6.5904605828
  H        11.7393700662       10.3460649444        8.9386651203
  H        11.1368738530        8.1438676978       10.2265128834
  C         7.9491505919        7.2963295705        5.8112266250
  C         7.1724745307        7.4412099934        4.6592930090
  H         6.5849058834        6.6194882671        4.1809859166
  H         7.9088798613        6.3865199795        6.4126303029
  C         6.7298939580       10.0212851264        2.0673566615
  C         5.8932608079       10.0338635637        0.8663728924
  H         5.8391516124       10.8915015721        0.1463433776
  H         7.3158356966       10.8633902554        2.3679121636
  S         4.7922025978       11.7199427141        8.5657625078
  S         3.4850844862        9.9515344738        4.6185755123
  S         0.7205817724       12.3218647069        1.9249772625
  C         5.8918584827       10.5462998208        9.2737277319
  C         6.1419699851        9.5396912583        8.4002087845
  C         5.3932075631        9.6496873704        7.1819635855
  C         4.5614399537       10.7008383556        7.1523159649
  C         3.7513294727       10.9942727687        6.0060167281
  C         3.0092562264       12.1410927572        5.8707008199
  C         2.2512859703       12.2206904586        4.6736543725
  C         2.4936800515       11.1301112944        3.8331850981
  C         1.8241742347       11.0821473634        2.5685197767
  C         1.9938057795        9.9588447576        1.8133872818
  C         1.1943366570       10.0606830132        0.6496084049
  C         0.5615595003       11.3086023134        0.4891298172
  H         6.3817980934       10.6837877954       10.1961996104
  H         6.9040194759        8.7363816845        8.5582754402
  H         5.5242011238        8.9642174131        6.3195178850
  H         3.0578885129       12.9549972982        6.6495575552
  H         1.5381685947       12.9778019611        4.5505378044
  H         2.7047053774        9.1286328745        2.1072306044
  H         1.2236801384        9.2228653012       -0.0776866996
  C        -0.3387819758       11.5300314944       -0.6417006072
  S        -0.5984262358       10.4736968974       -2.0053553925
  C        -1.8434583388       11.5510395286       -2.5228035586
  C        -2.6526363848       11.3591722003       -3.7224600383
  S        -3.8195412402       12.4598903237       -4.4199846111
  C        -3.9638585041       11.3343365252       -5.7847545110
  C        -4.9541540926       11.4469881222       -6.8981144834
  S        -5.0125499383       10.4395726607       -8.3254560442
  C        -6.4675098572       11.3280456905       -8.9082394802
  C        -6.7016714101       12.4509064348       -8.1123930398
  C        -5.9145284286       12.4439366914       -6.9342847533
  H        -5.8992712295       13.2400676806       -6.1886917218
  H        -7.4870214916       13.1830668619       -8.1535058890
  H        -6.9787435019       11.0185210932       -9.7639248314
  C        -3.1053783215       10.2493491845       -5.6901005141
  C        -2.4129393687       10.2339166404       -4.5049809413
  H        -1.8450581141        9.3993055027       -4.2920273310
  H        -2.9788763986        9.5050872757       -6.4195399638
  C        -1.9877018069       12.7261603481       -1.7775731756
  C        -1.1199219180       12.6713540308       -0.6131466523
  H        -0.9785706512       13.4207487517        0.1676725615
  H        -2.6706268248       13.4925689019       -1.8563424680
  S        -0.0807441953       15.2025866988       -8.3896204164
  S         0.8295234881       13.1388984478       -4.3362142409
  S         4.0311145236       15.1735737485       -1.8919690849
  C        -1.2513093028       14.2492778952       -9.1307615166
  C        -1.5420364990       13.0984074617       -8.3648011208
  C        -0.8559790311       13.0497877609       -7.1256615486
  C         0.0102331260       14.0726904627       -7.0374424019
  C         0.7952660394       14.1308902930       -5.8302237473
  C         1.4685377500       15.3275885289       -5.6441027670
  C         2.1066270099       15.3269199949       -4.3709950779
  C         2.0193050993       14.1653838240       -3.6561080947
  C         2.7693552939       14.0310071714       -2.4552043259
  C         2.5656673737       12.9559749944       -1.6117747392
  C         3.4345950865       13.0384832429       -0.5009312186
  C         4.1927975812       14.1948594741       -0.4750195011
  H        -1.6903525554       14.6141706805      -10.0528839215
  H        -2.2255567868       12.2876784500       -8.6285003143
  H        -0.7713939516       12.2972714857       -6.2998519215
  H         1.4461689690       16.1171333582       -6.3249801886
  H         2.7617573573       16.1045454823       -4.0932298644
  H         1.8092396989       12.1518765800       -1.7730926791
  H         3.4146554477       12.2367898484        0.2453911279
  C         5.1696584333       14.3659871738        0.5655794303
  S         5.3840193946       13.2853120685        1.9522766611
  C         6.4722160449       14.4374650606        2.6548828136
  C         7.2488005646       14.2272313100        3.8877725060
  S         8.3279998765       15.4135428039        4.6916473503
  C         8.5712056169       14.2604474515        6.0218777137
  C         9.2716045505       14.5322750151        7.2101279158
  S         9.5612605736       13.3898341319        8.5012111959
  C        10.4123086001       14.7011201302        9.4383803065
  C        10.6428084052       15.8302604173        8.6653132268
  C         9.9539152732       15.6912350648        7.4379256211
  H         9.8132705410       16.4845709231        6.7046405891
  H        11.1132697977       16.6951864737        8.9954635654
  H        10.7901253498       14.4894379873       10.4551181939
  C         7.9282948879       13.0566253877        5.7932296412
  C         7.2303042234       13.0071050490        4.5480038025
  H         6.6269409763       12.1567136053        4.2546200116
  H         7.9162466218       12.1495322291        6.4161636634
  C         6.5790047601       15.6035141950        1.9738182514
  C         5.8249640084       15.5399275914        0.7140519645
  H         5.7938017219       16.2845449864        0.0393495365
  H         7.1002154320       16.4647630397        2.3286788659
  S         5.0475696154       17.7458282464        8.3599815612
  S         3.7600494612       15.9447606933        4.3511597591
  S         0.8671574774       18.1525977036        1.6203192801
  C         5.7609866969       16.3853028905        9.1868794340
  C         5.6378723963       15.2359221253        8.4730617715
  C         5.0058357849       15.3472550690        7.1978874441
  C         4.5513736614       16.6314342183        7.0372387905
  C         3.9325491364       16.9871051377        5.7752294477
  C         3.4905319730       18.2774274159        5.5371223054
  C         2.6527942293       18.3556194492        4.3542847304
  C         2.7153891873       17.1424467915        3.5928068468
  C         2.0559367899       17.0552167314        2.2863895883
  C         2.0952974807       15.8802661611        1.6731961664
  C         1.2781206079       15.8563697949        0.5086464498
  C         0.5876584993       17.0077409245        0.2905471709
  H         6.1751287130       16.5081534084       10.1316727630
  H         6.1168204448       14.3340904035        8.7643178550
  H         4.8934969479       14.4876269419        6.6060769561
  H         3.6039268418       19.0988012844        6.2579802917
  H         2.2867961764       19.2869865839        3.9912584023
  H         2.7116990779       15.0308479121        1.9310225337
  H         1.2116597383       14.9968319361       -0.1428162845
  C        -0.2729693847       17.2377454355       -0.8327063532
  S        -0.8138448316       16.0652236766       -2.0380565856
  C        -1.7146021632       17.3477581605       -2.7935542911
  C        -2.5326023112       17.1878540797       -3.9664162582
  S        -3.6135731737       18.3936265441       -4.8034943146
  C        -4.1144426301       17.1867908670       -5.9651062082
  C        -5.0784047213       17.2763858403       -7.0216682353
  S        -5.1662434242       16.0844916006       -8.3558597318
  C        -6.6059693995       16.9492307405       -8.9598291930
  C        -6.8110763070       18.0783356964       -8.2528568841
  C        -5.9094075139       18.3268007878       -7.2294392265
  H        -5.9439205005       19.2559579458       -6.6290110231
  H        -7.6750939563       18.7944272690       -8.4388415187
  H        -7.2823981032       16.5422628553       -9.6973677007
  C        -3.4415733237       16.0065483295       -5.7899187787
  C        -2.5517604306       15.9582760485       -4.6308206920
  H        -1.9824861218       15.0460496252       -4.3258031257
  H        -3.6579597097       15.1071202082       -6.3372038730
  C        -1.6549154678       18.5613215049       -2.1427226611
  C        -0.9307684220       18.4870076082       -0.9589537323
  H        -0.8797338011       19.2843234963       -0.2923294592
  H        -2.2366404529       19.4407270291       -2.4270509605
  S        -1.3136655122       20.9587969502       -7.8965429649
  S         1.0380442526       18.7520336453       -4.7340667096
  S         4.0433158936       21.0810886140       -2.1154419693
  C        -2.0533029203       19.7343693570       -8.8633957523
  C        -1.7680691587       18.4761485385       -8.3540296094
  C        -0.8657218254       18.5362507466       -7.2357178763
  C        -0.5550261613       19.8132342039       -6.8356140493
  C         0.4465550297       20.0261097647       -5.7505462154
  C         0.9972239062       21.2652878319       -5.4729057238
  C         1.9897735075       21.1562925874       -4.4618519485
  C         2.1139676977       19.8850270846       -3.9510697868
  C         2.9239629118       19.7792511757       -2.7737132750
  C         3.0827821624       18.5684645033       -2.1778867142
  C         3.9763244676       18.6693247018       -1.0799372628
  C         4.4154601572       19.9355046976       -0.7669054690
  H        -2.6048865287       19.9658871821       -9.8142310201
  H        -2.1214910861       17.5090224426       -8.8421766897
  H        -0.6448616514       17.6052373345       -6.6953403758
  H         0.6466120538       22.1988188074       -5.9793661947
  H         2.5361256168       22.0624357156       -4.0550175793
  H         2.5192152284       17.7984576850       -2.4905764077
  H         4.2321298713       17.7547140244       -0.5093355540
  C         5.3147290916       20.1121005870        0.3330374510
  S         5.5472155547       19.0777462943        1.6658979109
  C         6.5426471620       20.2603298752        2.4308429265
  C         7.1889131538       20.1102614177        3.7177385464
  S         8.2302132319       21.2730833865        4.5338263002
  C         8.4281678849       20.0545816323        5.8435703054
  C         9.3047948750       20.2043522743        6.9676810582
  S         9.6786205144       19.1001065569        8.2865041073
  C        10.7331829737       20.2493483850        9.0620828796
  C        10.5260444510       21.5054604633        8.5240652251
  C         9.8766341672       21.4221293346        7.2575415206
  H         9.9550869510       22.2074310276        6.5379723363
  H        11.0879546846       22.3440746121        8.8850026839
  H        11.1280323978       20.0146078093       10.0596991294
  C         7.8300396210       18.8304279673        5.5828244408
  C         6.9860614002       18.9354261683        4.4262157391
  H         6.3443255233       18.0226554273        4.2128158109
  H         7.8803208699       18.0460430439        6.2623980169
  C         6.4983394689       21.4711850605        1.8865987358
  C         5.8376486496       21.3799871288        0.5983848722
  H         5.8282677622       22.2102084763       -0.0715590761
  H         6.8924606921       22.3653089336        2.3189830263
  S         5.1328836037       23.8184154096        8.4977643324
  S         3.7015072252       22.0040223860        4.5737256293
  S         0.5111610184       23.8325059476        1.8935632600
  C         6.3031833314       22.6509510834        9.1149897893
  C         6.3020058012       21.5817857619        8.2689683943
  C         5.4411077178       21.6425940590        7.1477418147
  C         4.7836837813       22.8222654751        7.0873953121
  C         3.8386294806       23.0186048192        5.9869874486
  C         3.0778459096       24.1504658941        5.8588986431
  C         2.3534122078       24.1482752314        4.5998677399
  C         2.5618090666       23.0946829064        3.7807455620
  C         1.7329272910       22.7588631627        2.5852832671
  C         2.0207976036       21.6313000018        1.8074956279
  C         1.3674011380       21.7435603030        0.5218982766
  C         0.6050264702       22.8643542949        0.4092463472
  H         6.8883238790       22.8024902031       10.0085867943
  H         7.0065732801       20.8240052785        8.4656983978
  H         5.3505989496       20.8512592006        6.4552648371
  H         3.0149608399       25.0278878570        6.5425856848
  H         1.6430685547       24.9278774842        4.3233493834
  H         2.7371484542       20.8023172679        2.0508929499
  H         1.4228795924       20.9597919667       -0.2536726019
  C        -0.1688422813       23.1147360076       -0.7702481773
  S        -0.5496480945       21.9216221523       -2.0391835000
  C        -1.7038843079       23.0734709489       -2.7372233562
  C        -2.5197756996       22.8493897559       -3.9226852680
  S        -3.8580325667       23.8530403617       -4.5175957190
  C        -4.1231373240       22.7359002436       -5.8619993789
  C        -5.0687349052       22.8411502462       -6.9230242674
  S        -5.4197247726       21.6486946718       -8.2500183374
  C        -6.5220399187       22.8576479673       -8.9567013772
  C        -6.6286360025       23.9672491624       -8.1824640244
  C        -5.8573505157       23.9712559573       -6.9500875176
  H        -5.6461474992       24.8467581094       -6.3076762865
  H        -7.1330253250       24.8161092612       -8.4940067876
  H        -7.0164382440       22.6394417503       -9.9121114300
  C        -3.5041674074       21.5854422491       -5.6020764676
  C        -2.5778946736       21.6449338587       -4.5260194695
  H        -1.9281121002       20.7942128480       -4.3396351662
  H        -3.5061444941       20.6895208185       -6.1716929812
  C        -1.7832206195       24.2275018002       -2.0472973515
  C        -0.9008368657       24.3104282318       -0.9130700869
  H        -0.7569700563       25.1088752050       -0.2771000731
  H        -2.2742418516       25.0249417988       -2.5163967590
  S        -0.2771680173       26.6936621942       -8.1141414901
  S         0.9578248211       24.5119413701       -4.3262501699
  S         4.0356359877       26.4055705306       -1.8557289812
  C        -1.5863154525       25.6566547391       -8.8557411740
  C        -1.7157576316       24.5158938254       -8.0721891459
  C        -0.8863932635       24.4984873023       -6.9224357054
  C        -0.0818625337       25.5591346879       -6.7882187346
  C         0.9133011573       25.6173833678       -5.7020896632
  C         1.6642330466       26.7340259874       -5.5155877514
  C         2.4124109822       26.6632188780       -4.3296303195
  C         2.1867113684       25.4725091212       -3.6163036675
  C         2.7993909237       25.2928230133       -2.3522429958
  C         2.7425352497       24.1620256773       -1.5810940454
  C         3.4317858644       24.3141903953       -0.3764860403
  C         4.1867833512       25.4749437907       -0.3577042676
  H        -2.3133468715       26.1049170623       -9.4993803622
  H        -2.5739968882       23.8635094634       -8.1998722760
  H        -0.9527559431       23.7263156007       -6.1737844676
  H         1.7739405708       27.5476878486       -6.2722799429
  H         3.1027758002       27.4057535106       -4.0492066205
  H         2.1480680356       23.2124305328       -1.7601206107
  H         3.4818562823       23.5187932171        0.4510249733
  C         5.0959167099       25.7375672023        0.7560040350
  S         5.2644503540       24.6903104292        2.2515531868
  C         6.4481758537       25.8048449774        2.9047707682
  C         7.2557030280       25.6013872467        4.0399994734
  S         8.3844352550       26.7242153034        4.6876579210
  C         8.5981447455       25.6476933978        6.0088026179
  C         9.4848171834       25.8444220931        7.1959985885
  S         9.7152959205       24.6595325812        8.4356061726
  C        10.8558080514       25.7565797039        9.2059417861
  C        11.1022112368       26.9085851252        8.5186600574
  C        10.2897173550       26.9104311199        7.2956173028
  H        10.3177854886       27.7040058479        6.5916131833
  H        11.8323389169       27.7417614571        8.7480292142
  H        11.3851986016       25.4200237585       10.1009993760
  C         7.7141064224       24.5948424287        6.0039717646
  C         6.9637790992       24.4971791266        4.7823228190
  H         6.3432716961       23.7177428291        4.5036971374
  H         7.6854151553       23.9036736151        6.8174303351
  C         6.6611309335       26.8338533597        1.9701147327
  C         5.8848166129       26.8513914441        0.7924118006
  H         5.9125773885       27.7136138237        0.0165401137
  H         7.3521499839       27.6175781151        2.1519925056
  S         5.2483379320       29.4260782187        8.2261951712
  S         3.5315514804       27.5378175707        4.5900621791
  S         0.4859848677       29.5660469684        1.9784648383
  C         6.1268477138       28.1658639494        9.0545093640
  C         6.1714004220       27.0634637996        8.2660072267
  C         5.4829215524       27.1664440542        7.0115397083
  C         4.8047976715       28.3683268602        6.9116501382
  C         3.9541279917       28.7001316898        5.8367580689
  C         3.0061818183       29.7354530928        5.8854927416
  C         2.0947137032       29.7328133998        4.8403213615
  C         2.2747080166       28.6272314962        3.9837127012
  C         1.5652385102       28.4425534998        2.7287708718
  C         1.9529039767       27.3930693776        1.9319587142
  C         1.2406460711       27.3416408988        0.6543397282
  C         0.3645157294       28.4616659669        0.5894658682
  H         6.6064238973       28.4754557613       10.0130063803
  H         6.7277303326       26.1774020815        8.5656495035
  H         5.3396873488       26.3257825143        6.3481010133
  H         3.1296045224       30.4579198696        6.6734208288
  H         1.4062877370       30.5359682544        4.6019567800