   15360
 i =        0, time =        0.000, E =        22.4067350651
  C         8.8950736850        6.3976123387       12.3190933471
  C         9.6745604511        7.2348114311       11.4938299600
  C        10.0999704181        6.7158572324       10.2400997780
  C        10.9173688346        7.5008157243        9.3871923541
  C         9.6779600424        5.2969730580        9.8328969985
  C         8.9520981307        4.5132533796       10.7320765651
  C         8.5290798329        5.0772503617       11.9343586444
  H         8.6051204370        6.6942758474       13.3304203786
  H         9.8676910679        8.3193617560       11.7616992702
  H        11.1876725211        8.4836410885        9.7303762658
  H         8.7308476839        3.4573067852       10.4793777515
  H         7.9770210893        4.4625256327       12.6431469645
  C        11.2530441645        6.9405852541        8.1281027281
  C        10.0971544746        4.7540352600        8.5752173292
  C        10.8978099485        5.5502318969        7.7541210055
  C        11.9739974386        7.7168364826        7.2366788719
  H         9.8832124684        3.7282936264        8.2986957545
  C        11.3905109030        5.0091367779        6.4863847714
  C        12.4700680387        7.2052797544        6.0191277969
  H        12.1894187956        8.7276768920        7.5556965647
  C        12.1370500888        5.8719987396        5.6439675991
  H        11.2041275380        4.0209968484        6.0896965220
  H        12.9593291379        7.8272985564        5.2794132140
  H        12.5863561994        5.5195265995        4.7258806686
  C         7.5010517741        9.0026879103        5.2764496972
  C         6.7688712333        9.8545072376        6.1385027106
  C         6.4482751481        9.3838928341        7.4178444297
  C         5.6626700347       10.1474607459        8.1919389929
  C         6.9493967135        8.0636705787        7.8649874529
  C         7.7591526433        7.2679933652        6.9982229955
  C         7.9613190087        7.7151500479        5.7162162480
  H         7.7276065748        9.3359377161        4.2669184170
  H         6.3855383605       10.6998175171        5.6656654599
  H         5.2755943780       11.0871147657        7.8378901112
  H         8.1116064768        6.3341742448        7.3481504260
  H         8.5508264227        7.1750292827        4.9915370071
  C         5.3521509782        9.7611598818        9.5256216134
  C         6.6220165271        7.6458164880        9.1574889838
  C         5.8714074544        8.4352477685       10.0128793651
  C         4.5756009352       10.5654449141       10.3321142862
  H         6.8799880130        6.7007859110        9.5421650465
  C         5.5747466939        8.0646986185       11.3135358725
  C         4.2882408911       10.1158491983       11.6582047419
  H         4.2615804539       11.5822818312       10.0284858384
  C         4.8089100184        8.9233478047       12.1563458228
  H         5.8967225511        7.0898850207       11.6984600724
  H         3.6730470817       10.7551201665       12.2776022653
  H         4.5330848234        8.6388466601       13.1543633716
  C         2.4048328837        6.1405441670       21.5582455837
  C         3.0876957002        7.0688458267       20.8060247751
  C         3.6025238169        6.7116588719       19.5224007275
  C         4.4421213164        7.5142198949       18.7489317803
  C         3.3516954347        5.2454672673       19.1224085754
  C         2.4870521236        4.3979256016       19.8464013508
  C         2.0606360941        4.9161985524       21.0905312075
  H         2.1424817282        6.4167310963       22.5661335559
  H         3.3151386762        8.0616999953       21.2235895808
  H         4.6896180273        8.5547527419       19.0366059938
  H         2.2813720939        3.4539970882       19.4691994544
  H         1.3940590443        4.3603015970       21.8108146050
  C         4.9343143401        7.0217792365       17.4914548471
  C         3.9293312706        4.8409297508       17.8470588249
  C         4.6867830101        5.6768375631       17.0239797251
  C         5.6165154724        7.9273809589       16.6052799186
  H         3.6405090402        3.8221106175       17.5354630127
  C         5.1466891918        5.2198856876       15.7430934371
  C         6.0475448045        7.4931981611       15.3249374983
  H         5.7877262699        8.9165302412       16.9603923843
  C         5.8134706130        6.1588886504       14.9086843536
  H         4.9796036436        4.1729814160       15.4074675238
  H         6.5351243127        8.1707756543       14.7125465843
  H         6.2037401935        5.8287059880       13.9544935212
  C         1.8678502056        8.8303989233       14.5629814976
  C         0.9680416475        9.6542972340       15.2255091569
  C         0.5045758814        9.3144030840       16.5177042520
  C        -0.3908968837       10.2004046205       17.2574210399
  C         0.9066519088        7.9636267469       17.0652377369
  C         1.7930047204        7.0942033816       16.3458769282
  C         2.2438189939        7.5733681335       15.0733101652
  H         2.1979651668        9.2460439067       13.5780485784
  H         0.6929879178       10.6051025510       14.8588494450
  H        -0.8225612577       11.1714084835       16.8327209168
  H         2.0492003726        6.1424003774       16.7702728714
  H         2.9064361466        6.9641212301       14.5350188916
  C        -0.7914278414        9.7939394326       18.5495022553
  C         0.4669505107        7.5064311493       18.3432218024
  C        -0.3662021086        8.4157089702       19.0449669894
  C        -1.6338372338       10.6678509895       19.3088903562
  H         0.8104097242        6.5875430672       18.7645380406
  C        -0.8127186335        8.0266527932       20.3121184506
  C        -1.9817974785       10.2520730622       20.5724024833
  H        -1.8117783648       11.6775677947       18.9436483518
  C        -1.6325115571        8.9705546576       21.0173063909
  H        -0.5814148333        7.0596457392       20.6965501432
  H        -2.5036643928       10.9814077658       21.2165249371
  H        -1.9388645415        8.6299452665       21.9154336169
  C         9.0262389355       12.3060545737       12.3012848948
  C         9.8041691805       13.2046846786       11.5675492983
  C        10.1480841527       12.8231301275       10.2682437543
  C        10.8743780980       13.7211487023        9.4252689642
  C         9.6657198409       11.4810248346        9.7110519025
  C         8.8364652345       10.6460519119       10.4939291293
  C         8.5096158348       11.0655276652       11.7936093333
  H         8.7190735179       12.5101033456       13.3482567459
  H        10.1466973170       14.1222375610       12.1148080341
  H        11.1195026225       14.6879713012        9.8844537826
  H         8.5483015748        9.7019705031       10.1520190018
  H         7.8485990051       10.5228552531       12.4839092480
  C        11.2330178635       13.2686385646        8.1333803501
  C        10.0378120024       11.0893500153        8.4297442305
  C        10.8779842516       11.9075555060        7.6719282144
  C        11.8658894006       14.0763918891        7.1723533655
  H         9.6591152263       10.1410761362        8.0956533602
  C        11.3482813153       11.3499221067        6.4045860691
  C        12.2305129483       13.5988924639        5.9144563487
  H        12.1385432530       15.0773764892        7.4360914562
  C        11.9850536114       12.2552385229        5.5626771922
  H        11.1837539213       10.4129926326        6.0178832719
  H        12.8213733588       14.2657416071        5.2663027716
  H        12.1901181751       12.0157534700        4.5321372015
  C         7.8781192708       15.0427749859        5.3563743459
  C         7.1062985166       15.8998261787        6.2026751142
  C         6.7134088548       15.4238241520        7.4024882547
  C         5.9632033251       16.2412739842        8.3427807220
  C         7.0340024705       13.9923137551        7.8765276222
  C         7.8118542626       13.2634578639        6.9880314141
  C         8.2319151009       13.7695845239        5.7414314008
  H         8.1766623263       15.3295849719        4.3644476385
  H         6.7759813129       16.8981932921        5.8252849411
  H         5.7498976030       17.2559804057        7.9839593371
  H         8.1106309049       12.2781592772        7.2903854162
  H         8.9031593499       13.0676892760        5.2141894275
  C         5.6682257944       15.7397222615        9.6423086193
  C         6.6542424711       13.4768600819        9.1059394406
  C         5.9287684720       14.2952708256       10.0363564091
  C         4.9175288926       16.5010833408       10.5255560566
  H         6.9115831807       12.4212946128        9.3608093704
  C         5.5667740068       13.8408289132       11.3135481823
  C         4.5314034495       16.0357818027       11.8007726085
  H         4.7669254601       17.5145383911       10.2332480461
  C         4.8328157847       14.6855884086       12.1750092209
  H         5.7240464295       12.8614957049       11.6871808918
  H         4.0614644963       16.7713511565       12.4517682906
  H         4.5822383870       14.3347996036       13.2088860333
  C         2.5671334038       12.0189247122       21.1899046109
  C         3.3222477915       12.9257808650       20.4632615279
  C         3.7577376334       12.5108209195       19.2032969866
  C         4.6485774381       13.3488633647       18.5338393677
  C         3.3562119355       11.1662256335       18.6698572489
  C         2.5355267356       10.3385431289       19.4393870494
  C         2.1960074473       10.7469827711       20.7592246778
  H         2.2304561489       12.4370226478       22.1468395670
  H         3.5481835339       13.8799987696       20.8981995851
  H         5.0187876262       14.3024459398       18.8790836469
  H         2.2344863286        9.3425845833       19.0463454675
  H         1.5239949289       10.2200114045       21.4287371634
  C         5.1133704359       12.9043836831       17.2586280578
  C         3.7583925813       10.7878157600       17.3588357030
  C         4.6461167034       11.6055951854       16.6398602697
  C         6.0617546475       13.6325727263       16.5189286038
  H         3.4652500954        9.8419916674       16.9021578013
  C         5.0831982927       11.2235592744       15.3422817387
  C         6.5505195031       13.1255124067       15.3129220188
  H         6.3351414341       14.6365701560       16.9251663098
  C         6.0790835762       11.9606411488       14.7411936575
  H         4.8253285284       10.2883034038       14.8444850528
  H         7.3021851150       13.5909309929       14.6395254553
  H         6.5097784628       11.6659594410       13.8054459775
  C         1.8302630861       14.9154910793       14.6832428421
  C         1.2211697943       15.8946023807       15.4788682631
  C         0.6201182494       15.5385943738       16.6853314189
  C        -0.1768148793       16.4839816458       17.4255137641
  C         0.7654392902       14.0966290085       17.1610785496
  C         1.4851009933       13.1949762393       16.3484600633
  C         2.0078718880       13.5753038277       15.1067504822
  H         2.2411716965       15.2253799180       13.7331481431
  H         1.1374098141       16.8939002509       15.0463984428
  H        -0.3401278289       17.4588901788       16.9659230633
  H         1.6959483312       12.1945904052       16.6429415067
  H         2.5996186401       12.8735873640       14.5594810872
  C        -0.7169870421       16.0332251938       18.6796330346
  C         0.2426625092       13.6943771463       18.4170867131
  C        -0.5361913109       14.6041556989       19.1753300850
  C        -1.5112300574       16.9728675111       19.4710969675
  H         0.3508079538       12.6472571183       18.7117671695
  C        -0.9935150458       14.2351351514       20.4320679406
  C        -1.9492351608       16.4717620404       20.7110237242
  H        -1.7827383949       17.9157290041       19.1363093344
  C        -1.6905609233       15.1718487282       21.1526700971
  H        -0.8677743336       13.2844801890       20.7670188842
  H        -2.4476966459       17.2146552670       21.3893183501
  H        -2.0845179538       14.9564590249       22.1606429637
  C         9.1196733717       18.0691661440       12.0723335036
  C         9.7272272858       19.0648899398       11.3517025291
  C        10.1596402601       18.7448815258       10.0234281888
  C        10.8186797282       19.7053414388        9.2430531661
  C         9.6911171765       17.4412189471        9.4419691219
  C         8.9359632306       16.5846793338       10.2258562717
  C         8.6759782149       16.8981964977       11.5109453947
  H         8.8832104199       18.3018481266       13.1165195442
  H         9.9866047922       20.0342302467       11.8890082065
  H        11.0234893348       20.6617681516        9.6362026363
  H         8.5379594981       15.6465327575        9.8201302154
  H         8.0746364818       16.2706017083       12.1306023063
  C        11.2238668592       19.3577507838        7.9406489294
  C        10.0688746784       17.0768851430        8.1603547972
  C        10.8631060631       18.0075002067        7.3915807026
  C        11.9957480984       20.2073358968        7.1194530575
  H         9.7359447696       16.0875175059        7.7777616502
  C        11.3418138654       17.5334028293        6.1067265562
  C        12.4564836888       19.7325840547        5.8808547918
  H        12.3419743184       21.0948571525        7.4317747984
  C        12.0729052900       18.4577546767        5.3498242928
  H        11.0710921582       16.5623463213        5.6315160305
  H        13.1300951259       20.3509001315        5.2013980102
  H        12.3622816512       18.0841777889        4.3911202580
  C         7.7059277799       21.4403576313        5.1274295818
  C         6.8959301216       22.2552348908        5.9537681103
  C         6.5089884741       21.8242846283        7.2475641632
  C         5.6628264534       22.6266368384        8.0575321583
  C         7.0035190565       20.4199981290        7.7656647945
  C         7.8045731897       19.7106355789        6.8807385859
  C         8.1728122493       20.2082377815        5.5838203749
  H         8.0761661224       21.8628594972        4.1864067278
  H         6.6463465865       23.2703838382        5.6123163393
  H         5.2550721044       23.5305582824        7.7227062986
  H         8.1329668359       18.7082381267        7.0972509027
  H         8.7631876647       19.5571748106        4.9052271278
  C         5.2824863736       22.0690260581        9.3140807206
  C         6.7012672183       19.9324673125        9.0244353564
  C         5.8140830514       20.7094239090        9.8280912400
  C         4.5811606714       22.8806482362       10.2156058540
  H         7.0585933672       18.9376009381        9.3537865300
  C         5.5420006422       20.3472236277       11.1756745218
  C         4.3332690190       22.4395641504       11.5377840466
  H         4.2466448596       23.9254136986        9.9528677656
  C         4.8060629695       21.2273991240       11.9745798944
  H         5.8404284259       19.3811671034       11.6326649960
  H         3.7974286001       23.1149390459       12.2897015738
  H         4.6334034875       20.8108349300       12.9698375778
  C         2.3098256842       18.1613768695       21.4601766384
  C         3.0217461047       19.0647465000       20.6732357249
  C         3.4739332701       18.6753056321       19.4146650562
  C         4.3071935796       19.4895286747       18.6567837128
  C         3.0948425347       17.2342679279       18.9391898939
  C         2.2970211099       16.3840831100       19.7660396614
  C         1.9488622117       16.8766661395       21.0382773670
  H         2.0029021150       18.5210356179       22.4594486083
  H         3.2914434402       20.0070057615       21.0779735915
  H         4.6129780214       20.5226908874       18.9885580990
  H         2.0390189610       15.4161654865       19.4448790491
  H         1.4390029499       16.2862508728       21.7564285235
  C         4.7559950526       18.9864899614       17.4106139570
  C         3.5012758608       16.8130410856       17.6706808896
  C         4.3399241713       17.6528619685       16.8978132629
  C         5.7014633179       19.7054931826       16.6401009191
  H         3.2532292981       15.7392101354       17.3761423406
  C         4.8741890188       17.2169483566       15.6473825168
  C         6.2095009434       19.1600992522       15.4473327776
  H         6.0320900660       20.6757129697       16.9835118356
  C         5.8464754856       17.9206540471       14.9421423555
  H         4.5815874038       16.2735698589       15.1847488238
  H         6.8637908028       19.8227134704       14.9204025911
  H         6.2709280501       17.5623979317       14.0563280093
  C         1.6521328228       21.7293555182       14.6971764497
  C         0.7931043912       22.5159433395       15.4340095926
  C         0.3400018540       22.0177727549       16.6121993021
  C        -0.4921416633       22.7948656983       17.4541936807
  C         0.7160993466       20.6059884280       17.0612988524
  C         1.4922207253       19.7519755401       16.2355693543
  C         2.0041273703       20.3857120873       15.0903994641
  H         2.0724828103       21.9759802309       13.7300613601
  H         0.4782914280       23.4166261333       15.0527872617
  H        -0.8690204973       23.7900720510       17.2079637187
  H         1.7482599628       18.7408897649       16.5076117052
  H         2.6754858756       19.8382140351       14.4640513584
  C        -0.9317634606       22.3062431952       18.6908163073
  C         0.2695070421       20.0921874378       18.3338492774
  C        -0.4951912942       20.9144907109       19.1652230904
  C        -1.7558032744       23.0371467568       19.5288389021
  H         0.6447233531       19.1528680410       18.6665358337
  C        -0.8527415597       20.4803533757       20.4685867455
  C        -2.0769317148       22.6251622490       20.7987271137
  H        -2.0056916711       24.1049875952       19.2763621978
  C        -1.6560544757       21.3617659255       21.2304273765
  H        -0.6196104556       19.4556430403       20.8381801635
  H        -2.6766948526       23.2196294101       21.4734472682
  H        -1.8648568283       20.9546576184       22.2053071496
  C         8.9449385535       24.4077682903       11.8075624915
  C         9.8695763903       25.2299666217       11.1208972151
  C        10.3705290152       24.8388639688        9.8885570921
  C        11.1895792244       25.6521911259        9.0963145806
  C         9.9360302259       23.4577256118        9.3091397114
  C         9.0883980959       22.6614522709       10.0594315862
  C         8.5610219952       23.1441680733       11.2718708536
  H         8.5634717101       24.7661396229       12.8259003451
  H        10.2372248890       26.1304284332       11.4995543013
  H        11.5177898481       26.6171559570        9.4470837957
  H         8.8482306520       21.6822892053        9.8089591654
  H         7.8790262792       22.4654924080       11.8281762395
  C        11.6007271971       25.1974758753        7.8138382158
  C        10.4204958676       23.0021247211        8.0396166014
  C        11.2395962034       23.8420636054        7.2923992607
  C        12.3328827275       26.0602667424        7.0946287194
  H         9.9978225718       22.0506069066        7.6695994948
  C        11.7408127595       23.4487454166        6.0584450002
  C        12.7987234492       25.6341558387        5.8540540870
  H        12.5079936047       27.0662404831        7.2402582852
  C        12.4994254961       24.4007414214        5.3105977157
  H        11.5686738056       22.4215258636        5.6847246614
  H        13.3646574872       26.3048667775        5.2306540901
  H        12.9283016843       24.1426010791        4.2809015162
  C         7.9667668979       26.9630356627        5.4542569443
  C         7.1817123807       27.9060815432        6.1564234017
  C         6.7557167149       27.6391283279        7.4360662015
  C         5.9019391930       28.5936318679        8.0784812906
  C         7.1898505943       26.3295824087        8.0775332183
  C         7.9369117260       25.4020762850        7.3534089622
  C         8.3134339276       25.7418129857        6.0450207113
  H         8.2998794079       27.1840942856        4.4439234345
  H         6.9075581739       28.8159170890        5.7147936446
  H         5.4496809747       29.4955977815        7.5928116358
  H         8.2227439458       24.4459855829        7.7661180501
  H         8.9344540077       25.0700663703        5.4591018665
  C         5.4624785570       28.1927094913        9.3642182024
  C         6.7649934316       26.0031126510        9.3800475827
  C         5.9096804103       26.8879710297        9.9866852969
  C         4.6276803377       29.0280936800       10.1278129740
  H         6.9675465869       25.0138427625        9.7627417839
  C         5.3790654268       26.5483532878       11.2658604954
  C         4.0972171720       28.6565787189       11.3490043504
  H         4.3009587841       29.9554832283        9.6641910211
  C         4.5328478985       27.4548892653       11.9427878117
  H         5.6064193685       25.6241159479       11.7451974793
  H         3.4523090690       29.3331113711       11.8308334315
  H         4.1229559722       27.2632774478       12.9444532647
  C         2.6943818859       24.1498853186       21.2148455296
  C         3.5702055461       24.8766444437       20.3999722564
  C         3.9269782208       24.3653122065       19.1277002433
  C         4.7490649016       25.2091147975       18.2800922829
  C         3.3573077648       23.0845124095       18.5936881634
  C         2.5097685066       22.3978505891       19.5037537935
  C         2.2550178098       22.9006523795       20.8020601609
  H         2.4612867102       24.4962276422       22.1426795452
  H         3.8746598089       25.8492539715       20.7761589719
  H         5.1642819686       26.1286029963       18.5942977644
  H         2.2122003628       21.3793741353       19.2358693088
  H         1.6620355124       22.4038826822       21.5486615817
  C         5.0038913521       24.7236084868       16.9609516213
  C         3.6555978711       22.6130421704       17.3043490845
  C         4.4801525803       23.4586979771       16.4932197369
  C         5.6730594090       25.4987189278       15.9875816351
  H         3.3699313459       21.6105683162       17.0062463376
  C         4.9618292564       22.9049061871       15.2540732415
  C         6.0874027691       24.9463636442       14.7821405922
  H         5.9299894233       26.5018812041       16.1595933938
  C         5.7829244976       23.6701219109       14.3790791043
  H         4.7126008766       21.8628345272       14.9593048526
  H         6.6378116175       25.5565569934       14.1237074961
  H         6.1845751592       23.2910806078       13.4605558382
  C         1.7503625578       27.5802889497       14.4790519142
  C         0.9715685384       28.3907286518       15.2965075865
  C         0.5588627146       27.8412727869       16.5873479572
  C        -0.1253466902       28.7551247640       17.4619325632
  C         0.9607277224       26.5182274679       17.0079105658
  C         1.7336551843       25.7139773977       16.1512638151
  C         2.0799714318       26.2681464604       14.9172124062
  H         2.1813409087       28.0186797367       13.5949890149
  H         0.7356339466       29.3677364598       14.9207217415
  H        -0.4793298797       29.7481251972       17.1896470624
  H         1.9187517691       24.6635457462       16.5198258739
  H         2.6427233905       25.5907984364       14.2791104302
  C        -0.4641608224       28.2268555334       18.7031967252
  C         0.6247703595       25.9659037599       18.2994934342
  C        -0.1302339079       26.8052437150       19.1569985970
  C        -1.2676996050       28.9755086989       19.5613015879
  H         0.8712909604       24.9756740098       18.5113113311
  C        -0.5557689678       26.2946997174       20.3554115624
  C        -1.6735721652       28.4388175994       20.7948109522
  H        -1.5142581153       30.0176435888       19.2984694951
  C        -1.3542191415       27.1266269417       21.1854548754
  H        -0.3442614384       25.2812361778       20.6521690865
  H        -2.2809297909       29.0824716923       21.4459606312
  H        -1.6495413994       26.7013475184       22.1514050937
  C         9.0654057757       30.3350451192       11.9009374327
  C         9.9751330446       31.1723920607       11.2330551920
  C        10.4972585206       30.7611934192        9.9852984857
  C        11.3725491631       31.6378127833        9.3358245254
  C        10.0324337222       29.5279782550        9.3603935615
  C         9.1388781312       28.7156109847       10.0266838709
  C         8.6638233610       29.1159156375       11.2763732224
  H         8.6620397007       30.5539940383       12.8345221892
  H        10.3502517724       32.0462265114       11.7213004598
  H        11.6530942938       32.5971122066        9.6620664293
  H         8.8065146340       27.7859634369        9.5593635318
  H         8.0035481498       28.5353213322       11.8239632913
  C        11.8878332311       31.2280368205        8.0426935303
  C        10.5341712474       29.1316109922        8.0763316322
  C        11.3991742591       29.9021518969        7.3551314606
  C        12.6351885359       32.1429297618        7.2535948570
  H        10.1944584598       28.2350009244        7.6436193151
  C        11.7819116570       29.6075506055        6.0711144756
  C        13.0671798822       31.7051129375        5.9693510251
  H        12.9173425997       33.1409915152        7.5796602276
  C        12.6391637975       30.4767674806        5.4142680103
  H        11.4920757552       28.6306550823        5.6567884862
  H        13.6643713338       32.3520823848        5.3953341544
  H        12.9953561921       30.2189898315        4.3584695024
  C         8.2724587146       33.1894261848        5.6081049691
  C         7.5102678705       34.1144263512        6.3650068984
  C         6.9800331127       33.6688667052        7.6081911930
  C         6.2307279046       34.5066767829        8.5057756774
  C         7.1827004111       32.2365539383        8.0580630438
  C         7.9687190551       31.3868862406        7.2108859676
  C         8.4765534534       31.8897726117        5.9677993315
  H         8.6166441569       33.5290942744        4.6163336506
  H         7.2888686266       35.0795351286        5.9850839243
  H         5.8813849992       35.5309945099        8.2852136861
  H         8.1764352609       30.3163156237        7.4580996157
  H         8.9319358772       31.1924347905        5.3215304572
  C         5.7503058557       33.9903818368        9.7579649672
  C         6.7014983123       31.7196377624        9.2676398453
  C         6.0041108608       32.5365634751       10.1644799270
  C         5.0723803948       34.7661203529       10.6781425723
  H         6.9286869665       30.6666695288        9.4985278970
  C         5.5369903030       32.0650205947       11.4188181579
  C         4.6976819154       34.2624035083       11.8933183480
  H         4.7693941495       35.7953424533       10.4605821875
  C         4.9103429093       32.9328763274       12.2900029092
  H         5.6138881962       31.0023291265       11.6785262877
  H         4.1577389583       34.9627589815       12.5560742114
  H         4.4661206902       32.7092458319       13.2367326271
  C         3.0816711093       30.6914479786       21.8517859943
  C         3.9290737567       31.4071166277       21.0239562346
  C         4.2859596709       30.8949769351       19.7683099083
  C         5.0240672790       31.7545262008       18.9049119301
  C         3.7359540415       29.5652088907       19.3216606064
  C         2.8316830572       28.8671423883       20.1593361751
  C         2.6074968761       29.4611553955       21.4068812478
  H         2.7560784231       30.9600866472       22.9000600415
  H         4.3092430418       32.4266271667       21.3279848499
  H         5.3032227393       32.7602256474       19.1341203477
  H         2.4068770822       27.9125468924       19.7638392062
  H         1.9261748127       28.8313263909       22.0208446867
  C         5.3384688360       31.2458569003       17.6334337172
  C         4.0454769386       29.0433259989       18.0379032410
  C         4.8227664633       29.8875247397       17.1917985199
  C         5.9650555465       32.0940416527       16.7306378717
  H         3.6374120845       28.0724396517       17.7244460801
  C         4.9719900824       29.5422297421       15.8214678029
  C         5.9990707026       31.7184772943       15.3520620882
  H         6.2497696786       33.1223043161       16.9815368218
  C         5.5084133619       30.4789722411       14.9350684968
  H         4.5641597783       28.6645898036       15.3921973761
  H         6.4392756353       32.4268146599       14.6593144268
  H         5.5329160850       30.3522086426       13.8473386800
  C         2.0958384148       33.8001192740       14.9830696638
  C         1.2955413774       34.5480108216       15.7991853922
  C         0.7211618837       34.0088287707       16.9601569250
  C        -0.0524943818       34.8106736073       17.7585091504