 DBCSR| Multiplication driver                                               XSMM
 DBCSR| Multrec recursion limit                                              512
 DBCSR| Multiplication stack size                                           1000
 DBCSR| Maximum elements for images                                    UNLIMITED
 DBCSR| Randmat seed                                                    12341313
 DBCSR| Multiplication size stacks                                             3


  **** **** ******  **  PROGRAM STARTED AT               2021-01-14 05:47:13.900
 ***** ** ***  *** **   PROGRAM STARTED ON               bulstake.phys.ucl.ac.uk
 **    ****   ******    PROGRAM STARTED BY                             sgiannini
 ***** **    ** ** **   PROGRAM PROCESS ID                                 12714
  **** **  *******  **  PROGRAM STARTED IN /scratch/sgiannini/FOB-SH-REGTESTS_/3
                                           2-XXXX_code_extension_V2/run-fssh-ANT
                                           _TrESP_BOMD_NOREORD

 CP2K| version string:                    CP2K version 4.0 (Development Version)
 CP2K| source code revision number:                                  git:3649ac3
 CP2K| cp2kflags: libint fftw3 libxc quip smm_dnn smm libxsmm libderiv_max_am1=5
 CP2K|             libint_max_am=6
 CP2K| is freely available from                            https://www.cp2k.org/
 CP2K| Program compiled at                          Wed  6 Jan 14:38:30 GMT 2021
 CP2K| Program compiled on                               bulstake.phys.ucl.ac.uk
 CP2K| Program compiled for                                                local
 CP2K| Data directory path           /scratch/sgiannini/flavoured-cptk/cp2k/data
 CP2K| Input file name                                                   run.inp

 GLOBAL| Force Environment number                                              1
 GLOBAL| Basis set file name                                           POTENTIAL
 GLOBAL| MM Potential file name                                     MM_POTENTIAL
 GLOBAL| Coordinate file name                                       pos-init.xyz
 GLOBAL| Force Environment number                                              2
 GLOBAL| Basis set file name                                           POTENTIAL
 GLOBAL| MM Potential file name                                     MM_POTENTIAL
 GLOBAL| Coordinate file name                                       pos-init.xyz
 GLOBAL| Force Environment number                                              3
 GLOBAL| Basis set file name                                           POTENTIAL
 GLOBAL| MM Potential file name                                     MM_POTENTIAL
 GLOBAL| Coordinate file name                                       pos-init.xyz
 GLOBAL| Method name                                                        CP2K
 GLOBAL| Project name                                                        run
 GLOBAL| Preferred FFT library                                             FFTW3
 GLOBAL| Preferred diagonalization lib.                                       SL
 GLOBAL| Run type                                                             MD
 GLOBAL| All-to-all communication in single precision                          F
 GLOBAL| FFTs using library dependent lengths                                  F
 GLOBAL| Global print level                                                  LOW
 GLOBAL| Total number of message passing processes                             1
 GLOBAL| Number of threads for this process                                    1
 GLOBAL| This output is from process                                           0
 GLOBAL| CPU model name :  Intel(R) Xeon(R) CPU E5-2687W v4 @ 3.00GHz

 MEMORY| system memory details [Kb]
 MEMORY|                        rank 0           min           max       average
 MEMORY| MemTotal             65894336      65894336      65894336      65894336
 MEMORY| MemFree                444500        444500        444500        444500
 MEMORY| Buffers                  8744          8744          8744          8744
 MEMORY| Cached               55012912      55012912      55012912      55012912
 MEMORY| Slab                  1947760       1947760       1947760       1947760
 MEMORY| SReclaimable          1698944       1698944       1698944       1698944
 MEMORY| MemLikelyFree        57165100      57165100      57165100      57165100

 TOTAL NUMBER OF FORCE EVALS           3
 NOTE:n_subforce_eval           2
 DECOMP =  T
 DECOMP =  T

 MD| Molecular Dynamics Protocol 
 MD| Ensemble Type                                                           NVE
 MD| Number of Time Steps                                                    200
 MD| Time Step [fs]                                                         0.10
 MD| Temperature [K]                                                      300.00
 MD| Temperature tolerance [K]                                              0.00
 MD| Print MD information every                                        1 step(s)
 MD| File type     Print frequency[steps]                             File names
 MD| Coordinates        10000                                      run-pos-1.xyz
 MD| Velocities             1                                      run-vel-1.xyz
 MD| Energies               1                                         run-1.ener
 MD| Dump                 200                                      run-1.restart

 ROT| Rotational Analysis Info 
 ROT| Principal axes and moments of inertia in atomic units:
 ROT|                                1                 2                 3
 ROT| EIGENVALUES            0.995003610E+11   0.362014218E+13   0.368611949E+13
 ROT|      X                     0.001269706       0.980174119       0.198134004
 ROT|      Y                    -0.999999147       0.001183996       0.000551054
 ROT|      Z                     0.000305539      -0.198134535       0.980174787
 ROT| Numer of Rotovibrational vectors:     6

 Calculation of degrees of freedom
                                                      Number of atoms:     15360
                                 Number of Intramolecular constraints:         0
                                 Number of Intermolecular constraints:         0
                                  Invariants(translation + rotations):         3
                                                   Degrees of freedom:     46077


 Restraints Information
                                  Number of Intramolecular restraints:         0
                                  Number of Intermolecular restraints:         0

 *** WARNING in motion/thermostat/thermostat_methods.F:280 :: Thermostat ***
 *** for Particles has been defined but the ensemble provided does not   ***
 *** support thermostat for Particles! Ignoring thermostat input.        ***

 ************************** Velocities initialization **************************
 Initial Temperature                                                    299.20 K
 COM velocity:            0.000000000000      0.000000000000      0.000000000000
 *******************************************************************************

 FIRST CALL: force_env_calc_energy_force
 RESTART_KEY F
 FOBSH| ACTIVE STATE =            1

 ENERGY| Total FORCE_EVAL ( MIXED ) energy (a.u.):            22.406735065098925

 STEP NUMBER                  =            0
 CPU TIME [s]                 =    0.0000000000000000        0.0000000000000000     

 MD_ENERGIES| Initialization proceeding


 ******************************** GO CP2K GO! **********************************
 INITIAL POTENTIAL ENERGY[hartree]     =                      0.224067350651E+02
 INITIAL KINETIC ENERGY[hartree]       =                      0.218294360639E+02
 INITIAL TEMPERATURE[K]                =                                 299.203
 INITIAL VOLUME[bohr^3]                =                      0.102650244716E+07
 INITIAL CELL LNTHS[bohr]   =      0.6471934E+02   0.4564067E+03   0.4226939E+02
 INITIAL CELL ANGLS[deg]    =      0.9000000E+02   0.1247000E+03   0.9000000E+02
 ******************************** GO CP2K GO! **********************************
 FOBSH| Put former active state           1 in new active state           1
 FOBSH| ACTIVE STATE =            1

 ENERGY| Total FORCE_EVAL ( MIXED ) energy (a.u.):            22.401026805916107

 FOBSH| CASE1: no hop and no trivial crossing
 ENTER integrator.F
 STEP NUMBER                  =            1
 CPU TIME [s]                 =    2.4824322690255940        2.4824322690255940     

 *******************************************************************************
 ENSEMBLE TYPE                =                                              NVE
 STEP NUMBER                  =                                                1
 TIME [fs]                    =                                         0.100000
 CONSERVED QUANTITY [hartree] =                               0.442361676668E+02

                                              INSTANTANEOUS             AVERAGES
 CPU TIME [s]                 =                        2.48                 2.48
 ENERGY DRIFT PER ATOM [K]    =         -0.711754112282E-04   0.000000000000E+00
 POTENTIAL ENERGY[hartree]    =          0.224010268059E+02   0.224010268059E+02
 KINETIC ENERGY [hartree]     =          0.218351408609E+02   0.218351408609E+02
 TEMPERATURE [K]              =                     299.281              299.281
 *******************************************************************************

 FOBSH| Put former active state           1 in new active state           1
 FOBSH| ACTIVE STATE =            1

 ENERGY| Total FORCE_EVAL ( MIXED ) energy (a.u.):            22.394695304948993

 FOBSH| CASE1: no hop and no trivial crossing
 ENTER integrator.F
 STEP NUMBER                  =            2
 CPU TIME [s]                 =   0.42738306475803256        1.4549076668918133     

 *******************************************************************************
 ENSEMBLE TYPE                =                                              NVE
 STEP NUMBER                  =                                                2
 TIME [fs]                    =                                         0.200000
 CONSERVED QUANTITY [hartree] =                               0.442361638293E+02

                                              INSTANTANEOUS             AVERAGES
 CPU TIME [s]                 =                        0.43                 1.45
 ENERGY DRIFT PER ATOM [K]    =         -0.150067713881E-03  -0.750338569405E-04
 POTENTIAL ENERGY[hartree]    =          0.223946953049E+02   0.223978610554E+02
 KINETIC ENERGY [hartree]     =          0.218414685244E+02   0.218383046926E+02
 TEMPERATURE [K]              =                     299.368              299.324
 *******************************************************************************

 FOBSH| Put former active state           1 in new active state           1
 FOBSH| ACTIVE STATE =            1

 ENERGY| Total FORCE_EVAL ( MIXED ) energy (a.u.):            22.387801218691664

 FOBSH| CASE1: no hop and no trivial crossing
 ENTER integrator.F
 STEP NUMBER                  =            3
 CPU TIME [s]                 =   0.42821520613506436        1.1126768466395636     

 *******************************************************************************
 ENSEMBLE TYPE                =                                              NVE
 STEP NUMBER                  =                                                3
 TIME [fs]                    =                                         0.300000
 CONSERVED QUANTITY [hartree] =                               0.442361596520E+02

                                              INSTANTANEOUS             AVERAGES
 CPU TIME [s]                 =                        0.43                 1.11
 ENERGY DRIFT PER ATOM [K]    =         -0.235945723548E-03  -0.128671145810E-03
 POTENTIAL ENERGY[hartree]    =          0.223878012187E+02   0.223945077765E+02
 KINETIC ENERGY [hartree]     =          0.218483584333E+02   0.218416559395E+02
 TEMPERATURE [K]              =                     299.462              299.370
 *******************************************************************************

 FOBSH| Put former active state           1 in new active state           1
 FOBSH| ACTIVE STATE =            1

 ENERGY| Total FORCE_EVAL ( MIXED ) energy (a.u.):            22.380410747776040

 FOBSH| CASE1: no hop and no trivial crossing
 ENTER integrator.F
 STEP NUMBER                  =            4
 CPU TIME [s]                 =   0.42382631497457623       0.94046421372331679     

 *******************************************************************************
 ENSEMBLE TYPE                =                                              NVE
 STEP NUMBER                  =                                                4
 TIME [fs]                    =                                         0.400000
 CONSERVED QUANTITY [hartree] =                               0.442361551729E+02

                                              INSTANTANEOUS             AVERAGES
 CPU TIME [s]                 =                        0.42                 0.94
 ENERGY DRIFT PER ATOM [K]    =         -0.328028480574E-03  -0.178510479501E-03
 POTENTIAL ENERGY[hartree]    =          0.223804107478E+02   0.223909835193E+02
 KINETIC ENERGY [hartree]     =          0.218557444251E+02   0.218451780609E+02
 TEMPERATURE [K]              =                     299.563              299.419
 *******************************************************************************

 FOBSH| Put former active state           1 in new active state           1
 FOBSH| ACTIVE STATE =            1

 ENERGY| Total FORCE_EVAL ( MIXED ) energy (a.u.):            22.372594970644410

 FOBSH| CASE1: no hop and no trivial crossing
 ENTER integrator.F
 STEP NUMBER                  =            5
 CPU TIME [s]                 =   0.42222980409860611       0.83681733179837470     

 *******************************************************************************
 ENSEMBLE TYPE                =                                              NVE
 STEP NUMBER                  =                                                5
 TIME [fs]                    =                                         0.500000
 CONSERVED QUANTITY [hartree] =                               0.442361504477E+02

                                              INSTANTANEOUS             AVERAGES
 CPU TIME [s]                 =                        0.42                 0.84
 ENERGY DRIFT PER ATOM [K]    =         -0.425169600283E-03  -0.227842303657E-03
 POTENTIAL ENERGY[hartree]    =          0.223725949706E+02   0.223873058096E+02
 KINETIC ENERGY [hartree]     =          0.218635554771E+02   0.218488535442E+02
 TEMPERATURE [K]              =                     299.670              299.469
 *******************************************************************************

 FOBSH| Put former active state           1 in new active state           1
 FOBSH| ACTIVE STATE =            1

 ENERGY| Total FORCE_EVAL ( MIXED ) energy (a.u.):            22.364429047387976

 FOBSH| CASE1: no hop and no trivial crossing
 ENTER integrator.F
 STEP NUMBER                  =            6
 CPU TIME [s]                 =   0.42123361583799124       0.76755337913831068     

 *******************************************************************************
 ENSEMBLE TYPE                =                                              NVE
 STEP NUMBER                  =                                                6
 TIME [fs]                    =                                         0.600000
 CONSERVED QUANTITY [hartree] =                               0.442361455132E+02

                                              INSTANTANEOUS             AVERAGES
 CPU TIME [s]                 =                        0.42                 0.77
 ENERGY DRIFT PER ATOM [K]    =         -0.526615679802E-03  -0.277637866348E-03
 POTENTIAL ENERGY[hartree]    =          0.223644290474E+02   0.223834930159E+02
 KINETIC ENERGY [hartree]     =          0.218717164658E+02   0.218526640311E+02
 TEMPERATURE [K]              =                     299.782              299.521
 *******************************************************************************

 FOBSH| Put former active state           1 in new active state           1
 FOBSH| ACTIVE STATE =            1

 ENERGY| Total FORCE_EVAL ( MIXED ) energy (a.u.):            22.355991432088278

 FOBSH| CASE1: no hop and no trivial crossing
 ENTER integrator.F
 STEP NUMBER                  =            7
 CPU TIME [s]                 =   0.42171119898557663       0.71814735340220581     

 *******************************************************************************
 ENSEMBLE TYPE                =                                              NVE
 STEP NUMBER                  =                                                7
 TIME [fs]                    =                                         0.700000
 CONSERVED QUANTITY [hartree] =                               0.442361404254E+02

                                              INSTANTANEOUS             AVERAGES
 CPU TIME [s]                 =                        0.42                 0.72
 ENERGY DRIFT PER ATOM [K]    =         -0.631210703574E-03  -0.328148271666E-03
 POTENTIAL ENERGY[hartree]    =          0.223559914321E+02   0.223795642182E+02
 KINETIC ENERGY [hartree]     =          0.218801489933E+02   0.218565904543E+02
 TEMPERATURE [K]              =                     299.898              299.575
 *******************************************************************************

 FOBSH| Put former active state           1 in new active state           1
 FOBSH| ACTIVE STATE =            1

 ENERGY| Total FORCE_EVAL ( MIXED ) energy (a.u.):            22.347362970509828

 FOBSH| CASE1: no hop and no trivial crossing
 ENTER integrator.F
 STEP NUMBER                  =            8
 CPU TIME [s]                 =   0.42178167914971709       0.68110164412064478     

 *******************************************************************************
 ENSEMBLE TYPE                =                                              NVE
 STEP NUMBER                  =                                                8
 TIME [fs]                    =                                         0.800000
 CONSERVED QUANTITY [hartree] =                               0.442361352235E+02

                                              INSTANTANEOUS             AVERAGES
 CPU TIME [s]                 =                        0.42                 0.68
 ENERGY DRIFT PER ATOM [K]    =         -0.738152450128E-03  -0.379398793974E-03
 POTENTIAL ENERGY[hartree]    =          0.223473629705E+02   0.223755390622E+02
 KINETIC ENERGY [hartree]     =          0.218887722530E+02   0.218606131791E+02
 TEMPERATURE [K]              =                     300.016              299.630
 *******************************************************************************

 FOBSH| Put former active state           1 in new active state           1
 FOBSH| ACTIVE STATE =            1

 ENERGY| Total FORCE_EVAL ( MIXED ) energy (a.u.):            22.338626099324717

 FOBSH| CASE1: no hop and no trivial crossing
 ENTER integrator.F
 STEP NUMBER                  =            9
 CPU TIME [s]                 =   0.42193782003596425       0.65230566366679132     

 *******************************************************************************
 ENSEMBLE TYPE                =                                              NVE
 STEP NUMBER                  =                                                9
 TIME [fs]                    =                                         0.900000
 CONSERVED QUANTITY [hartree] =                               0.442361300034E+02

                                              INSTANTANEOUS             AVERAGES
 CPU TIME [s]                 =                        0.42                 0.65
 ENERGY DRIFT PER ATOM [K]    =         -0.845470274963E-03  -0.431184514084E-03
 POTENTIAL ENERGY[hartree]    =          0.223386260993E+02   0.223714376219E+02
 KINETIC ENERGY [hartree]     =          0.218975039040E+02   0.218647121486E+02
 TEMPERATURE [K]              =                     300.136              299.686
 *******************************************************************************

 FOBSH| Put former active state           1 in new active state           1
 FOBSH| ACTIVE STATE =            1

 ENERGY| Total FORCE_EVAL ( MIXED ) energy (a.u.):            22.329863879319284

 FOBSH| CASE1: no hop and no trivial crossing
 ENTER integrator.F
 STEP NUMBER                  =           10
 CPU TIME [s]                 =   0.42062744498252869       0.62913784179836507     

 *******************************************************************************
 ENSEMBLE TYPE                =                                              NVE
 STEP NUMBER                  =                                               10
 TIME [fs]                    =                                         1.000000
 CONSERVED QUANTITY [hartree] =                               0.442361247752E+02

                                              INSTANTANEOUS             AVERAGES
 CPU TIME [s]                 =                        0.42                 0.63
 ENERGY DRIFT PER ATOM [K]    =         -0.952950874224E-03  -0.483361150098E-03
 POTENTIAL ENERGY[hartree]    =          0.223298638793E+02   0.223672802477E+02
 KINETIC ENERGY [hartree]     =          0.219062608959E+02   0.218688670233E+02
 TEMPERATURE [K]              =                     300.256              299.743
 *******************************************************************************

 FOBSH| Put former active state           1 in new active state           1
 FOBSH| ACTIVE STATE =            1

 ENERGY| Total FORCE_EVAL ( MIXED ) energy (a.u.):            22.321159257333875

 FOBSH| CASE1: no hop and no trivial crossing
 ENTER integrator.F
 STEP NUMBER                  =           11
 CPU TIME [s]                 =   0.42032145988196135       0.61015453435141931     

 *******************************************************************************
 ENSEMBLE TYPE                =                                              NVE
 STEP NUMBER                  =                                               11
 TIME [fs]                    =                                         1.100000
 CONSERVED QUANTITY [hartree] =                               0.442361196284E+02

                                              INSTANTANEOUS             AVERAGES
 CPU TIME [s]                 =                        0.42                 0.61
 ENERGY DRIFT PER ATOM [K]    =         -0.105876050194E-02  -0.535670182084E-03
 POTENTIAL ENERGY[hartree]    =          0.223211592573E+02   0.223630874304E+02
 KINETIC ENERGY [hartree]     =          0.219149603711E+02   0.218730573276E+02
 TEMPERATURE [K]              =                     300.375              299.801
 *******************************************************************************

 FOBSH| Put former active state           1 in new active state           1
 FOBSH| ACTIVE STATE =            1

 ENERGY| Total FORCE_EVAL ( MIXED ) energy (a.u.):            22.312594045962719

 FOBSH| CASE1: no hop and no trivial crossing
 ENTER integrator.F
 STEP NUMBER                  =           12
 CPU TIME [s]                 =   0.41975321620702744       0.59428775783938659     

 *******************************************************************************
 ENSEMBLE TYPE                =                                              NVE
 STEP NUMBER                  =                                               12
 TIME [fs]                    =                                         1.200000
 CONSERVED QUANTITY [hartree] =                               0.442361146349E+02

                                              INSTANTANEOUS             AVERAGES
 CPU TIME [s]                 =                        0.42                 0.59
 ENERGY DRIFT PER ATOM [K]    =         -0.116141849894E-02  -0.587815875155E-03
 POTENTIAL ENERGY[hartree]    =          0.223125940460E+02   0.223588796483E+02
 KINETIC ENERGY [hartree]     =          0.219235205889E+02   0.218772625994E+02
 TEMPERATURE [K]              =                     300.492              299.858
 *******************************************************************************

 FOBSH| Put former active state           1 in new active state           1
 FOBSH| ACTIVE STATE =            1

 ENERGY| Total FORCE_EVAL ( MIXED ) energy (a.u.):            22.304248078321685

 FOBSH| CASE1: no hop and no trivial crossing
 ENTER integrator.F
 STEP NUMBER                  =           13
 CPU TIME [s]                 =   0.41948779579252005       0.58084160691270459     

 *******************************************************************************
 ENSEMBLE TYPE                =                                              NVE
 STEP NUMBER                  =                                               13
 TIME [fs]                    =                                         1.300000
 CONSERVED QUANTITY [hartree] =                               0.442361097867E+02

                                              INSTANTANEOUS             AVERAGES
 CPU TIME [s]                 =                        0.42                 0.58
 ENERGY DRIFT PER ATOM [K]    =         -0.126108840362E-02  -0.639606069652E-03
 POTENTIAL ENERGY[hartree]    =          0.223042480783E+02   0.223546772199E+02
 KINETIC ENERGY [hartree]     =          0.219318617084E+02   0.218814625309E+02
 TEMPERATURE [K]              =                     300.607              299.916
 *******************************************************************************

 FOBSH| Put former active state           1 in new active state           1
 FOBSH| ACTIVE STATE =            1

 ENERGY| Total FORCE_EVAL ( MIXED ) energy (a.u.):            22.296198564230519

 FOBSH| CASE1: no hop and no trivial crossing
 ENTER integrator.F
 STEP NUMBER                  =           14
 CPU TIME [s]                 =   0.42098152590915561       0.56942302969816538     

 *******************************************************************************
 ENSEMBLE TYPE                =                                              NVE
 STEP NUMBER                  =                                               14
 TIME [fs]                    =                                         1.400000
 CONSERVED QUANTITY [hartree] =                               0.442361051757E+02

                                              INSTANTANEOUS             AVERAGES
 CPU TIME [s]                 =                        0.42                 0.57
 ENERGY DRIFT PER ATOM [K]    =         -0.135588386412E-02  -0.690768769257E-03
 POTENTIAL ENERGY[hartree]    =          0.222961985642E+02   0.223505001730E+02
 KINETIC ENERGY [hartree]     =          0.219399066114E+02   0.218856371081E+02
 TEMPERATURE [K]              =                     300.717              299.973
 *******************************************************************************

 FOBSH| Put former active state           1 in new active state           1
 FOBSH| ACTIVE STATE =            1

 ENERGY| Total FORCE_EVAL ( MIXED ) energy (a.u.):            22.288519083580180

 FOBSH| CASE1: no hop and no trivial crossing
 ENTER integrator.F
 STEP NUMBER                  =           15
 CPU TIME [s]                 =   0.41946934442967176       0.55942611734693248     

 *******************************************************************************
 ENSEMBLE TYPE                =                                              NVE
 STEP NUMBER                  =                                               15
 TIME [fs]                    =                                         1.500000
 CONSERVED QUANTITY [hartree] =                               0.442361008227E+02

                                              INSTANTANEOUS             AVERAGES
 CPU TIME [s]                 =                        0.42                 0.56
 ENERGY DRIFT PER ATOM [K]    =         -0.144537385382E-02  -0.741075774894E-03
 POTENTIAL ENERGY[hartree]    =          0.222885190836E+02   0.223463681004E+02
 KINETIC ENERGY [hartree]     =          0.219475817391E+02   0.218897667501E+02
 TEMPERATURE [K]              =                     300.822              300.030
 *******************************************************************************

 FOBSH| Put former active state           1 in new active state           1
 FOBSH| ACTIVE STATE =            1

 ENERGY| Total FORCE_EVAL ( MIXED ) energy (a.u.):            22.281278841529264

 FOBSH| CASE1: no hop and no trivial crossing
 ENTER integrator.F
 STEP NUMBER                  =           16
 CPU TIME [s]                 =   0.41952141793444753       0.55068207363365218     

 *******************************************************************************
 ENSEMBLE TYPE                =                                              NVE
 STEP NUMBER                  =                                               16
 TIME [fs]                    =                                         1.600000
 CONSERVED QUANTITY [hartree] =                               0.442360968007E+02

                                              INSTANTANEOUS             AVERAGES
 CPU TIME [s]                 =                        0.42                 0.55
 ENERGY DRIFT PER ATOM [K]    =         -0.152805897428E-02  -0.790262224856E-03
 POTENTIAL ENERGY[hartree]    =          0.222812788415E+02   0.223423000217E+02
 KINETIC ENERGY [hartree]     =          0.219548179591E+02   0.218938324507E+02
 TEMPERATURE [K]              =                     300.921              300.085
 *******************************************************************************

 FOBSH| Put former active state           1 in new active state           1
 FOBSH| ACTIVE STATE =            1

 ENERGY| Total FORCE_EVAL ( MIXED ) energy (a.u.):            22.274541956096694

 FOBSH| CASE1: no hop and no trivial crossing
 ENTER integrator.F
 STEP NUMBER                  =           17
 CPU TIME [s]                 =   0.41929581388831139       0.54295347011922035     

 *******************************************************************************
 ENSEMBLE TYPE                =                                              NVE
 STEP NUMBER                  =                                               17
 TIME [fs]                    =                                         1.700000
 CONSERVED QUANTITY [hartree] =                               0.442360930942E+02

                                              INSTANTANEOUS             AVERAGES
 CPU TIME [s]                 =                        0.42                 0.54
 ENERGY DRIFT PER ATOM [K]    =         -0.160425711974E-02  -0.838144277497E-03
 POTENTIAL ENERGY[hartree]    =          0.222745419561E+02   0.223383142532E+02
 KINETIC ENERGY [hartree]     =          0.219615511381E+02   0.218978159029E+02
 TEMPERATURE [K]              =                     301.014              300.140
 *******************************************************************************

 FOBSH| Put former active state           1 in new active state           1
 FOBSH| ACTIVE STATE =            1

 ENERGY| Total FORCE_EVAL ( MIXED ) energy (a.u.):            22.268367070316707

 FOBSH| CASE1: no hop and no trivial crossing
 ENTER integrator.F
 STEP NUMBER                  =           18
 CPU TIME [s]                 =   0.41850528400391340       0.53603968200170327     

 *******************************************************************************
 ENSEMBLE TYPE                =                                              NVE
 STEP NUMBER                  =                                               18
 TIME [fs]                    =                                         1.800000
 CONSERVED QUANTITY [hartree] =                               0.442360898436E+02

                                              INSTANTANEOUS             AVERAGES
 CPU TIME [s]                 =                        0.42                 0.54
 ENERGY DRIFT PER ATOM [K]    =         -0.167108398410E-02  -0.884418705641E-03
 POTENTIAL ENERGY[hartree]    =          0.222683670703E+02   0.223344282986E+02
 KINETIC ENERGY [hartree]     =          0.219677227733E+02   0.219016996179E+02
 TEMPERATURE [K]              =                     301.098              300.193
 *******************************************************************************

 FOBSH| Put former active state           1 in new active state           1
 FOBSH| ACTIVE STATE =            1

 ENERGY| Total FORCE_EVAL ( MIXED ) energy (a.u.):            22.262806404475281

 FOBSH| CASE1: no hop and no trivial crossing
 ENTER integrator.F
 STEP NUMBER                  =           19
 CPU TIME [s]                 =   0.42159352917224169       0.53001620027383689     

 *******************************************************************************
 ENSEMBLE TYPE                =                                              NVE
 STEP NUMBER                  =                                               19
 TIME [fs]                    =                                         1.900000
 CONSERVED QUANTITY [hartree] =                               0.442360869779E+02

                                              INSTANTANEOUS             AVERAGES
 CPU TIME [s]                 =                        0.42                 0.53
 ENERGY DRIFT PER ATOM [K]    =         -0.172999890979E-02  -0.928922926912E-03
 POTENTIAL ENERGY[hartree]    =          0.222628064045E+02   0.223306587252E+02
 KINETIC ENERGY [hartree]     =          0.219732805734E+02   0.219054670366E+02
 TEMPERATURE [K]              =                     301.174              300.245
 *******************************************************************************

 FOBSH| Put former active state           1 in new active state           1
 FOBSH| ACTIVE STATE =            1

 ENERGY| Total FORCE_EVAL ( MIXED ) energy (a.u.):            22.257905666692590

 FOBSH| CASE1: no hop and no trivial crossing
 ENTER integrator.F
 STEP NUMBER                  =           20
 CPU TIME [s]                 =   0.41682578762993217       0.52435667964164168     

 *******************************************************************************
 ENSEMBLE TYPE                =                                              NVE
 STEP NUMBER                  =                                               20
 TIME [fs]                    =                                         2.000000
 CONSERVED QUANTITY [hartree] =                               0.442360845674E+02

                                              INSTANTANEOUS             AVERAGES
 CPU TIME [s]                 =                        0.42                 0.52
 ENERGY DRIFT PER ATOM [K]    =         -0.177955302563E-02  -0.971454431848E-03
 POTENTIAL ENERGY[hartree]    =          0.222579056667E+02   0.223270210723E+02
 KINETIC ENERGY [hartree]     =          0.219781789007E+02   0.219091026298E+02
 TEMPERATURE [K]              =                     301.241              300.295
 *******************************************************************************

 FOBSH| Put former active state           1 in new active state           1
 FOBSH| ACTIVE STATE =            1

 ENERGY| Total FORCE_EVAL ( MIXED ) energy (a.u.):            22.253703333605994

 FOBSH| CASE1: no hop and no trivial crossing
 ENTER integrator.F
 STEP NUMBER                  =           21
 CPU TIME [s]                 =   0.41278213914483786       0.51904360628465096     

 *******************************************************************************
 ENSEMBLE TYPE                =                                              NVE
 STEP NUMBER                  =                                               21
 TIME [fs]                    =                                         2.100000
 CONSERVED QUANTITY [hartree] =                               0.442360826283E+02

                                              INSTANTANEOUS             AVERAGES
 CPU TIME [s]                 =                        0.41                 0.52
 ENERGY DRIFT PER ATOM [K]    =         -0.181941743472E-02  -0.101183362246E-02
 POTENTIAL ENERGY[hartree]    =          0.222537033336E+02   0.223235297514E+02
 KINETIC ENERGY [hartree]     =          0.219823792947E+02   0.219125919948E+02
 TEMPERATURE [K]              =                     301.299              300.343
 *******************************************************************************

 FOBSH| Put former active state           1 in new active state           1
 FOBSH| ACTIVE STATE =            1

 ENERGY| Total FORCE_EVAL ( MIXED ) energy (a.u.):            22.250230421901058

 FOBSH| CASE1: no hop and no trivial crossing
 ENTER integrator.F
 STEP NUMBER                  =           22
 CPU TIME [s]                 =   0.41078603686764836       0.51412280767478724     

 *******************************************************************************
 ENSEMBLE TYPE                =                                              NVE
 STEP NUMBER                  =                                               22
 TIME [fs]                    =                                         2.200000
 CONSERVED QUANTITY [hartree] =                               0.442360811676E+02

                                              INSTANTANEOUS             AVERAGES
 CPU TIME [s]                 =                        0.41                 0.51
 ENERGY DRIFT PER ATOM [K]    =         -0.184944741197E-02  -0.104990697653E-02
 POTENTIAL ENERGY[hartree]    =          0.222502304219E+02   0.223201979637E+02
 KINETIC ENERGY [hartree]     =          0.219858507457E+02   0.219159219380E+02
 TEMPERATURE [K]              =                     301.347              300.388
 *******************************************************************************

 FOBSH| Put former active state           1 in new active state           1
 FOBSH| ACTIVE STATE =            1

 ENERGY| Total FORCE_EVAL ( MIXED ) energy (a.u.):            22.247510209461833

 FOBSH| CASE1: no hop and no trivial crossing
 ENTER integrator.F
 STEP NUMBER                  =           23
 CPU TIME [s]                 =   0.41797005617991090       0.50994225326196652     

 *******************************************************************************
 ENSEMBLE TYPE                =                                              NVE
 STEP NUMBER                  =                                               23
 TIME [fs]                    =                                         2.300000
 CONSERVED QUANTITY [hartree] =                               0.442360801885E+02

                                              INSTANTANEOUS             AVERAGES
 CPU TIME [s]                 =                        0.42                 0.51
 ENERGY DRIFT PER ATOM [K]    =         -0.186957572484E-02  -0.108554474820E-02
 POTENTIAL ENERGY[hartree]    =          0.222475102095E+02   0.223170376265E+02
 KINETIC ENERGY [hartree]     =          0.219885699791E+02   0.219190805485E+02
 TEMPERATURE [K]              =                     301.384              300.431
 *******************************************************************************

 FOBSH| Put former active state           1 in new active state           1
 FOBSH| ACTIVE STATE =            1

 ENERGY| Total FORCE_EVAL ( MIXED ) energy (a.u.):            22.245558140219885

 FOBSH| CASE1: no hop and no trivial crossing
 ENTER integrator.F
 STEP NUMBER                  =           24
 CPU TIME [s]                 =   0.41587349912151694       0.50602272183944774     

 *******************************************************************************
 ENSEMBLE TYPE                =                                              NVE
 STEP NUMBER                  =                                               24
 TIME [fs]                    =                                         2.400000
 CONSERVED QUANTITY [hartree] =                               0.442360797344E+02

                                              INSTANTANEOUS             AVERAGES
 CPU TIME [s]                 =                        0.42                 0.51
 ENERGY DRIFT PER ATOM [K]    =         -0.187891105116E-02  -0.111860167749E-02
 POTENTIAL ENERGY[hartree]    =          0.222455581402E+02   0.223140593146E+02
 KINETIC ENERGY [hartree]     =          0.219905215942E+02   0.219220572588E+02
 TEMPERATURE [K]              =                     301.411              300.472
 *******************************************************************************

 FOBSH| Put former active state           1 in new active state           1
 FOBSH| ACTIVE STATE =            1

 ENERGY| Total FORCE_EVAL ( MIXED ) energy (a.u.):            22.244381762749587

 FOBSH| CASE1: no hop and no trivial crossing
 ENTER integrator.F
 STEP NUMBER                  =           25
 CPU TIME [s]                 =   0.38697069697082043       0.50126064084470268     

 *******************************************************************************
 ENSEMBLE TYPE                =                                              NVE
 STEP NUMBER                  =                                               25
 TIME [fs]                    =                                         2.500000
 CONSERVED QUANTITY [hartree] =                               0.442360797695E+02

                                              INSTANTANEOUS             AVERAGES
 CPU TIME [s]                 =                        0.39                 0.50
 ENERGY DRIFT PER ATOM [K]    =         -0.187819113426E-02  -0.114898525576E-02
 POTENTIAL ENERGY[hartree]    =          0.222443817627E+02   0.223112722125E+02
 KINETIC ENERGY [hartree]     =          0.219916980067E+02   0.219248428887E+02
 TEMPERATURE [K]              =                     301.427              300.510
 *******************************************************************************

 FOBSH| Put former active state           1 in new active state           1
 FOBSH| ACTIVE STATE =            1

 ENERGY| Total FORCE_EVAL ( MIXED ) energy (a.u.):            22.243980764549772

 FOBSH| CASE1: no hop and no trivial crossing
 ENTER integrator.F
 STEP NUMBER                  =           26
 CPU TIME [s]                 =   0.39709843089804053       0.49725440200060028     

 *******************************************************************************
 ENSEMBLE TYPE                =                                              NVE
 STEP NUMBER                  =                                               26
 TIME [fs]                    =                                         2.600000
 CONSERVED QUANTITY [hartree] =                               0.442360802808E+02

                                              INSTANTANEOUS             AVERAGES
 CPU TIME [s]                 =                        0.40                 0.50
 ENERGY DRIFT PER ATOM [K]    =         -0.186767955382E-02  -0.117662734414E-02
 POTENTIAL ENERGY[hartree]    =          0.222439807645E+02   0.223086840799E+02
 KINETIC ENERGY [hartree]     =          0.219920995162E+02   0.219274296820E+02
 TEMPERATURE [K]              =                     301.432              300.546
 *******************************************************************************

 FOBSH| Put former active state           1 in new active state           1
 FOBSH| ACTIVE STATE =            1

 ENERGY| Total FORCE_EVAL ( MIXED ) energy (a.u.):            22.244347066606718

 FOBSH| CASE1: no hop and no trivial crossing
 ENTER integrator.F
 STEP NUMBER                  =           27
 CPU TIME [s]                 =   0.39767550397664309       0.49356629466637958     

 *******************************************************************************
 ENSEMBLE TYPE                =                                              NVE
 STEP NUMBER                  =                                               27
 TIME [fs]                    =                                         2.700000
 CONSERVED QUANTITY [hartree] =                               0.442360812831E+02

                                              INSTANTANEOUS             AVERAGES
 CPU TIME [s]                 =                        0.40                 0.49
 ENERGY DRIFT PER ATOM [K]    =         -0.184707214903E-02  -0.120145863321E-02
 POTENTIAL ENERGY[hartree]    =          0.222443470666E+02   0.223063012276E+02
 KINETIC ENERGY [hartree]     =          0.219917342165E+02   0.219298113315E+02
 TEMPERATURE [K]              =                     301.427              300.579
 *******************************************************************************

 FOBSH| Put former active state           1 in new active state           1
 FOBSH| ACTIVE STATE =            1

 ENERGY| Total FORCE_EVAL ( MIXED ) energy (a.u.):            22.245465025274147

 FOBSH| CASE1: no hop and no trivial crossing
 ENTER integrator.F
 STEP NUMBER                  =           28
 CPU TIME [s]                 =   0.40350618213415146       0.49034986207594283     

 *******************************************************************************
 ENSEMBLE TYPE                =                                              NVE
 STEP NUMBER                  =                                               28
 TIME [fs]                    =                                         2.800000
 CONSERVED QUANTITY [hartree] =                               0.442360827482E+02

                                              INSTANTANEOUS             AVERAGES
 CPU TIME [s]                 =                        0.40                 0.49
 ENERGY DRIFT PER ATOM [K]    =         -0.181695374652E-02  -0.122344060155E-02
 POTENTIAL ENERGY[hartree]    =          0.222454650253E+02   0.223041285061E+02
 KINETIC ENERGY [hartree]     =          0.219906177229E+02   0.219319829883E+02
 TEMPERATURE [K]              =                     301.412              300.608
 *******************************************************************************

 FOBSH| Put former active state           1 in new active state           1
 FOBSH| ACTIVE STATE =            1

 ENERGY| Total FORCE_EVAL ( MIXED ) energy (a.u.):            22.247311654372975

 FOBSH| CASE1: no hop and no trivial crossing
 ENTER integrator.F
 STEP NUMBER                  =           29
 CPU TIME [s]                 =   0.40782808186486363       0.48750428344797458     

 *******************************************************************************
 ENSEMBLE TYPE                =                                              NVE
 STEP NUMBER                  =                                               29
 TIME [fs]                    =                                         2.900000
 CONSERVED QUANTITY [hartree] =                               0.442360846093E+02

                                              INSTANTANEOUS             AVERAGES
 CPU TIME [s]                 =                        0.41                 0.49
 ENERGY DRIFT PER ATOM [K]    =         -0.177869140782E-02  -0.124258718107E-02
 POTENTIAL ENERGY[hartree]    =          0.222473116544E+02   0.223021693043E+02
 KINETIC ENERGY [hartree]     =          0.219887729550E+02   0.219339412630E+02
 TEMPERATURE [K]              =                     301.387              300.635
 *******************************************************************************

 FOBSH| Put former active state           1 in new active state           1
 FOBSH| ACTIVE STATE =            1

 ENERGY| Total FORCE_EVAL ( MIXED ) energy (a.u.):            22.249857206866832

 FOBSH| CASE1: no hop and no trivial crossing
 ENTER integrator.F
 STEP NUMBER                  =           30
 CPU TIME [s]                 =   0.39407095080241561       0.48438983902645594     

 *******************************************************************************
 ENSEMBLE TYPE                =                                              NVE
 STEP NUMBER                  =                                               30
 TIME [fs]                    =                                         3.000000
 CONSERVED QUANTITY [hartree] =                               0.442360869028E+02

                                              INSTANTANEOUS             AVERAGES
 CPU TIME [s]                 =                        0.39                 0.48
 ENERGY DRIFT PER ATOM [K]    =         -0.173154097355E-02  -0.125888564082E-02
 POTENTIAL ENERGY[hartree]    =          0.222498572069E+02   0.223004255677E+02
 KINETIC ENERGY [hartree]     =          0.219862296960E+02   0.219356842108E+02
 TEMPERATURE [K]              =                     301.352              300.659
 *******************************************************************************

 FOBSH| Put former active state           1 in new active state           1
 FOBSH| ACTIVE STATE =            1

 ENERGY| Total FORCE_EVAL ( MIXED ) energy (a.u.):            22.253065385058086

 FOBSH| CASE1: no hop and no trivial crossing
 ENTER integrator.F
 STEP NUMBER                  =           31
 CPU TIME [s]                 =   0.23354606004431844       0.47629810422058055     

 *******************************************************************************
 ENSEMBLE TYPE                =                                              NVE
 STEP NUMBER                  =                                               31
 TIME [fs]                    =                                         3.100000
 CONSERVED QUANTITY [hartree] =                               0.442360895485E+02

                                              INSTANTANEOUS             AVERAGES
 CPU TIME [s]                 =                        0.23                 0.48
 ENERGY DRIFT PER ATOM [K]    =         -0.167715080865E-02  -0.127237806559E-02
 POTENTIAL ENERGY[hartree]    =          0.222530653851E+02   0.222988978199E+02
 KINETIC ENERGY [hartree]     =          0.219830241635E+02   0.219372113060E+02
 TEMPERATURE [K]              =                     301.308              300.680
 *******************************************************************************

 FOBSH| Put former active state           1 in new active state           1
 FOBSH| ACTIVE STATE =            1

 ENERGY| Total FORCE_EVAL ( MIXED ) energy (a.u.):            22.256894020425577

 FOBSH| CASE1: no hop and no trivial crossing
 ENTER integrator.F
 STEP NUMBER                  =           32
 CPU TIME [s]                 =   0.22050076024606824       0.46830443722137705     

 *******************************************************************************
 ENSEMBLE TYPE                =                                              NVE
 STEP NUMBER                  =                                               32
 TIME [fs]                    =                                         3.200000
 CONSERVED QUANTITY [hartree] =                               0.442360925363E+02

                                              INSTANTANEOUS             AVERAGES
 CPU TIME [s]                 =                        0.22                 0.47
 ENERGY DRIFT PER ATOM [K]    =         -0.161572767033E-02  -0.128310774074E-02
 POTENTIAL ENERGY[hartree]    =          0.222568940204E+02   0.222975852011E+02
 KINETIC ENERGY [hartree]     =          0.219791985158E+02   0.219385234063E+02
 TEMPERATURE [K]              =                     301.255              300.698
 *******************************************************************************

 FOBSH| Put former active state           1 in new active state           1
 FOBSH| ACTIVE STATE =            1

 ENERGY| Total FORCE_EVAL ( MIXED ) energy (a.u.):            22.261295565504316

 FOBSH| CASE1: no hop and no trivial crossing
 ENTER integrator.F
 STEP NUMBER                  =           33
 CPU TIME [s]                 =   0.21716913580894470       0.46069427657251549     

 *******************************************************************************
 ENSEMBLE TYPE                =                                              NVE
 STEP NUMBER                  =                                               33
 TIME [fs]                    =                                         3.300000
 CONSERVED QUANTITY [hartree] =                               0.442360958095E+02

                                              INSTANTANEOUS             AVERAGES
 CPU TIME [s]                 =                        0.22                 0.46
 ENERGY DRIFT PER ATOM [K]    =         -0.154843619770E-02  -0.129114799701E-02
 POTENTIAL ENERGY[hartree]    =          0.222612955655E+02   0.222964855152E+02
 KINETIC ENERGY [hartree]     =          0.219748002440E+02   0.219396227045E+02
 TEMPERATURE [K]              =                     301.195              300.713
 *******************************************************************************

 FOBSH| Put former active state           1 in new active state           1
 FOBSH| ACTIVE STATE =            1

 ENERGY| Total FORCE_EVAL ( MIXED ) energy (a.u.):            22.266217759136644

 FOBSH| CASE1: no hop and no trivial crossing
 ENTER integrator.F
 STEP NUMBER                  =           34
 CPU TIME [s]                 =   0.21848820103332400       0.45357056846842164     

 *******************************************************************************
 ENSEMBLE TYPE                =                                              NVE
 STEP NUMBER                  =                                               34
 TIME [fs]                    =                                         3.400000
 CONSERVED QUANTITY [hartree] =                               0.442360993619E+02

                                              INSTANTANEOUS             AVERAGES
 CPU TIME [s]                 =                        0.22                 0.45
 ENERGY DRIFT PER ATOM [K]    =         -0.147540453851E-02  -0.129656730705E-02
 POTENTIAL ENERGY[hartree]    =          0.222662177591E+02   0.222955952871E+02
 KINETIC ENERGY [hartree]     =          0.219698816028E+02   0.219405126720E+02
 TEMPERATURE [K]              =                     301.128              300.725
 *******************************************************************************

 FOBSH| Put former active state           1 in new active state           1
 FOBSH| ACTIVE STATE =            1

 ENERGY| Total FORCE_EVAL ( MIXED ) energy (a.u.):            22.271604200162013

 FOBSH| CASE1: no hop and no trivial crossing
 ENTER integrator.F
 STEP NUMBER                  =           35
 CPU TIME [s]                 =   0.21691790828481317       0.44680906389174713     

 *******************************************************************************
 ENSEMBLE TYPE                =                                              NVE
 STEP NUMBER                  =                                               35
 TIME [fs]                    =                                         3.500000
 CONSERVED QUANTITY [hartree] =                               0.442361031181E+02

                                              INSTANTANEOUS             AVERAGES
 CPU TIME [s]                 =                        0.22                 0.45
 ENERGY DRIFT PER ATOM [K]    =         -0.139818485279E-02  -0.129947066550E-02
 POTENTIAL ENERGY[hartree]    =          0.222716042002E+02   0.222949098275E+02
 KINETIC ENERGY [hartree]     =          0.219644989179E+02   0.219411979934E+02
 TEMPERATURE [K]              =                     301.054              300.735
 *******************************************************************************

 FOBSH| Put former active state           1 in new active state           1
 FOBSH| ACTIVE STATE =            1

 ENERGY| Total FORCE_EVAL ( MIXED ) energy (a.u.):            22.277395253976838

 FOBSH| CASE1: no hop and no trivial crossing
 ENTER integrator.F
 STEP NUMBER                  =           36
 CPU TIME [s]                 =   0.21684455964714289       0.44042116099606365     

 *******************************************************************************
 ENSEMBLE TYPE                =                                              NVE
 STEP NUMBER                  =                                               36
 TIME [fs]                    =                                         3.600000
 CONSERVED QUANTITY [hartree] =                               0.442361070487E+02

                                              INSTANTANEOUS             AVERAGES
 CPU TIME [s]                 =                        0.22                 0.44
 ENERGY DRIFT PER ATOM [K]    =         -0.131737753717E-02  -0.129996807861E-02
 POTENTIAL ENERGY[hartree]    =          0.222773952540E+02   0.222944233115E+02
 KINETIC ENERGY [hartree]     =          0.219587117947E+02   0.219416844878E+02
 TEMPERATURE [K]              =                     300.975              300.741
 *******************************************************************************

 FOBSH| Put former active state           1 in new active state           1
 FOBSH| ACTIVE STATE =            1

 ENERGY| Total FORCE_EVAL ( MIXED ) energy (a.u.):            22.283528740421101

 FOBSH| CASE1: no hop and no trivial crossing
 ENTER integrator.F
 STEP NUMBER                  =           37
 CPU TIME [s]                 =   0.21725532831624150       0.43438965200471708     

 *******************************************************************************
 ENSEMBLE TYPE                =                                              NVE
 STEP NUMBER                  =                                               37
 TIME [fs]                    =                                         3.700000
 CONSERVED QUANTITY [hartree] =                               0.442361110844E+02

                                              INSTANTANEOUS             AVERAGES
 CPU TIME [s]                 =                        0.22                 0.43
 ENERGY DRIFT PER ATOM [K]    =         -0.123441019812E-02  -0.129819624400E-02
 POTENTIAL ENERGY[hartree]    =          0.222835287404E+02   0.222941288637E+02
 KINETIC ENERGY [hartree]     =          0.219525823440E+02   0.219419790245E+02
 TEMPERATURE [K]              =                     300.891              300.745
 *******************************************************************************

 FOBSH| Put former active state           1 in new active state           1
 FOBSH| ACTIVE STATE =            1

 ENERGY| Total FORCE_EVAL ( MIXED ) energy (a.u.):            22.289940730930969

 FOBSH| CASE1: no hop and no trivial crossing
 ENTER integrator.F
 STEP NUMBER                  =           38
 CPU TIME [s]                 =   0.21799730183556676       0.42869511647394992     

 *******************************************************************************
 ENSEMBLE TYPE                =                                              NVE
 STEP NUMBER                  =                                               38
 TIME [fs]                    =                                         3.800000
 CONSERVED QUANTITY [hartree] =                               0.442361151892E+02

                                              INSTANTANEOUS             AVERAGES
 CPU TIME [s]                 =                        0.22                 0.43
 ENERGY DRIFT PER ATOM [K]    =         -0.115002377273E-02  -0.129429696844E-02
 POTENTIAL ENERGY[hartree]    =          0.222899407309E+02   0.222940186496E+02
 KINETIC ENERGY [hartree]     =          0.219461744582E+02   0.219420894306E+02
 TEMPERATURE [K]              =                     300.803              300.747
 *******************************************************************************

 FOBSH| Put former active state           1 in new active state           1
 FOBSH| ACTIVE STATE =            1

 ENERGY| Total FORCE_EVAL ( MIXED ) energy (a.u.):            22.296566235084402

 FOBSH| CASE1: no hop and no trivial crossing
 ENTER integrator.F
 STEP NUMBER                  =           39
 CPU TIME [s]                 =   0.21660976577550173       0.42325703055860514     

 *******************************************************************************
 ENSEMBLE TYPE                =                                              NVE
 STEP NUMBER                  =                                               39
 TIME [fs]                    =                                         3.900000
 CONSERVED QUANTITY [hartree] =                               0.442361192964E+02

                                              INSTANTANEOUS             AVERAGES
 CPU TIME [s]                 =                        0.22                 0.42
 ENERGY DRIFT PER ATOM [K]    =         -0.106558643448E-02  -0.128843259577E-02
 POTENTIAL ENERGY[hartree]    =          0.222965662351E+02   0.222940839723E+02
 KINETIC ENERGY [hartree]     =          0.219395530613E+02   0.219420243955E+02
 TEMPERATURE [K]              =                     300.712              300.746
 *******************************************************************************

 FOBSH| Put former active state           1 in new active state           1
 FOBSH| ACTIVE STATE =            1

 ENERGY| Total FORCE_EVAL ( MIXED ) energy (a.u.):            22.303340164715717

 FOBSH| CASE1: no hop and no trivial crossing
 ENTER integrator.F
 STEP NUMBER                  =           40
 CPU TIME [s]                 =   0.21757009439170361       0.41811485715443264     

 *******************************************************************************
 ENSEMBLE TYPE                =                                              NVE
 STEP NUMBER                  =                                               40
 TIME [fs]                    =                                         4.000000
 CONSERVED QUANTITY [hartree] =                               0.442361233865E+02

                                              INSTANTANEOUS             AVERAGES
 CPU TIME [s]                 =                        0.22                 0.42
 ENERGY DRIFT PER ATOM [K]    =         -0.981501580738E-03  -0.128075932040E-02
 POTENTIAL ENERGY[hartree]    =          0.223033401647E+02   0.222943153772E+02
 KINETIC ENERGY [hartree]     =          0.219327832218E+02   0.219417933662E+02
 TEMPERATURE [K]              =                     300.619              300.743
 *******************************************************************************

 FOBSH| Put former active state           1 in new active state           1
 FOBSH| ACTIVE STATE =            1

 ENERGY| Total FORCE_EVAL ( MIXED ) energy (a.u.):            22.310197950629565

 FOBSH| CASE1: no hop and no trivial crossing
 ENTER integrator.F
 STEP NUMBER                  =           41
 CPU TIME [s]                 =   0.21770519763231277       0.41322681667828343     

 *******************************************************************************
 ENSEMBLE TYPE                =                                              NVE
 STEP NUMBER                  =                                               41
 TIME [fs]                    =                                         4.100000
 CONSERVED QUANTITY [hartree] =                               0.442361273776E+02

                                              INSTANTANEOUS             AVERAGES
 CPU TIME [s]                 =                        0.22                 0.41
 ENERGY DRIFT PER ATOM [K]    =         -0.899450298471E-03  -0.127145910035E-02
 POTENTIAL ENERGY[hartree]    =          0.223101979506E+02   0.222947027570E+02
 KINETIC ENERGY [hartree]     =          0.219259294270E+02   0.219414064408E+02
 TEMPERATURE [K]              =                     300.525              300.737
 *******************************************************************************

 FOBSH| Put former active state           1 in new active state           1
 FOBSH| ACTIVE STATE =            1

 ENERGY| Total FORCE_EVAL ( MIXED ) energy (a.u.):            22.317076364998979

 FOBSH| CASE1: no hop and no trivial crossing
 ENTER integrator.F
 STEP NUMBER                  =           42
 CPU TIME [s]                 =   0.21656151115894318       0.40854430940401337     

 *******************************************************************************
 ENSEMBLE TYPE                =                                              NVE
 STEP NUMBER                  =                                               42
 TIME [fs]                    =                                         4.200000
 CONSERVED QUANTITY [hartree] =                               0.442361312627E+02

                                              INSTANTANEOUS             AVERAGES
 CPU TIME [s]                 =                        0.22                 0.41
 ENERGY DRIFT PER ATOM [K]    =         -0.819580597266E-03  -0.126070008837E-02
 POTENTIAL ENERGY[hartree]    =          0.223170763650E+02   0.222952354619E+02
 KINETIC ENERGY [hartree]     =          0.219190548977E+02   0.219408742612E+02
 TEMPERATURE [K]              =                     300.431              300.730
 *******************************************************************************

 FOBSH| Put former active state           1 in new active state           1
 FOBSH| ACTIVE STATE =            1

 ENERGY| Total FORCE_EVAL ( MIXED ) energy (a.u.):            22.323914239342098

 FOBSH| CASE1: no hop and no trivial crossing
 ENTER integrator.F
 STEP NUMBER                  =           43
 CPU TIME [s]                 =   0.21787136793136597       0.40411005495116115     

 *******************************************************************************
 ENSEMBLE TYPE                =                                              NVE
 STEP NUMBER                  =                                               43
 TIME [fs]                    =                                         4.300000
 CONSERVED QUANTITY [hartree] =                               0.442361349823E+02

                                              INSTANTANEOUS             AVERAGES
 CPU TIME [s]                 =                        0.22                 0.40
 ENERGY DRIFT PER ATOM [K]    =         -0.743111244505E-03  -0.124866313851E-02
 POTENTIAL ENERGY[hartree]    =          0.223239142393E+02   0.222959024103E+02
 KINETIC ENERGY [hartree]     =          0.219122207430E+02   0.219402079004E+02
 TEMPERATURE [K]              =                     300.337              300.721
 *******************************************************************************

 FOBSH| Put former active state           1 in new active state           1
 FOBSH| ACTIVE STATE =            1

 ENERGY| Total FORCE_EVAL ( MIXED ) energy (a.u.):            22.330653155095284

 FOBSH| CASE1: no hop and no trivial crossing
 ENTER integrator.F
 STEP NUMBER                  =           44
 CPU TIME [s]                 =   0.21769847115501761       0.39987342804670334     

 *******************************************************************************
 ENSEMBLE TYPE                =                                              NVE
 STEP NUMBER                  =                                               44
 TIME [fs]                    =                                         4.400000
 CONSERVED QUANTITY [hartree] =                               0.442361384667E+02

                                              INSTANTANEOUS             AVERAGES
 CPU TIME [s]                 =                        0.22                 0.40
 ENERGY DRIFT PER ATOM [K]    =         -0.671479479560E-03  -0.123554532808E-02
 POTENTIAL ENERGY[hartree]    =          0.223306531551E+02   0.222966921999E+02
 KINETIC ENERGY [hartree]     =          0.219054853116E+02   0.219394187506E+02
 TEMPERATURE [K]              =                     300.245              300.710
 *******************************************************************************

 FOBSH| Put former active state           1 in new active state           1
 FOBSH| ACTIVE STATE =            1

 ENERGY| Total FORCE_EVAL ( MIXED ) energy (a.u.):            22.337238171290490

 FOBSH| CASE1: no hop and no trivial crossing
 ENTER integrator.F
 STEP NUMBER                  =           45
 CPU TIME [s]                 =   0.21662384876981378       0.39580121517388356     

 *******************************************************************************
 ENSEMBLE TYPE                =                                              NVE
 STEP NUMBER                  =                                               45
 TIME [fs]                    =                                         4.500000
 CONSERVED QUANTITY [hartree] =                               0.442361417085E+02

                                              INSTANTANEOUS             AVERAGES
 CPU TIME [s]                 =                        0.22                 0.40
 ENERGY DRIFT PER ATOM [K]    =         -0.604833531429E-03  -0.122152951038E-02
 POTENTIAL ENERGY[hartree]    =          0.223372381713E+02   0.222975932215E+02
 KINETIC ENERGY [hartree]     =          0.218989035372E+02   0.219385184125E+02
 TEMPERATURE [K]              =                     300.155              300.698
 *******************************************************************************

 FOBSH| Put former active state           1 in new active state           1
 FOBSH| ACTIVE STATE =            1

 ENERGY| Total FORCE_EVAL ( MIXED ) energy (a.u.):            22.343618434648043

 FOBSH| CASE1: no hop and no trivial crossing
 ENTER integrator.F
 STEP NUMBER                  =           46
 CPU TIME [s]                 =   0.21736053423956037       0.39192206993618089     

 *******************************************************************************
 ENSEMBLE TYPE                =                                              NVE
 STEP NUMBER                  =                                               46
 TIME [fs]                    =                                         4.600000
 CONSERVED QUANTITY [hartree] =                               0.442361446593E+02

                                              INSTANTANEOUS             AVERAGES
 CPU TIME [s]                 =                        0.22                 0.39
 ENERGY DRIFT PER ATOM [K]    =         -0.544169567708E-03  -0.120680429423E-02
 POTENTIAL ENERGY[hartree]    =          0.223436184346E+02   0.222985937696E+02
 KINETIC ENERGY [hartree]     =          0.218925262247E+02   0.219375185824E+02
 TEMPERATURE [K]              =                     300.067              300.684
 *******************************************************************************

 FOBSH| Put former active state           1 in new active state           1
 FOBSH| ACTIVE STATE =            1

 ENERGY| Total FORCE_EVAL ( MIXED ) energy (a.u.):            22.349747726574311

 FOBSH| CASE1: no hop and no trivial crossing
 ENTER integrator.F
 STEP NUMBER                  =           47
 CPU TIME [s]                 =   0.21781768510118127       0.38821772132267024     

 *******************************************************************************
 ENSEMBLE TYPE                =                                              NVE
 STEP NUMBER                  =                                               47
 TIME [fs]                    =                                         4.700000
 CONSERVED QUANTITY [hartree] =                               0.442361473074E+02

                                              INSTANTANEOUS             AVERAGES
 CPU TIME [s]                 =                        0.22                 0.39
 ENERGY DRIFT PER ATOM [K]    =         -0.489729056120E-03  -0.119154737428E-02
 POTENTIAL ENERGY[hartree]    =          0.223497477266E+02   0.222996821517E+02
 KINETIC ENERGY [hartree]     =          0.218863995808E+02   0.219364309440E+02
 TEMPERATURE [K]              =                     299.984              300.669
 *******************************************************************************

 FOBSH| Put former active state           1 in new active state           1
 FOBSH| ACTIVE STATE =            1

 ENERGY| Total FORCE_EVAL ( MIXED ) energy (a.u.):            22.355584820009252

 FOBSH| CASE1: no hop and no trivial crossing
 ENTER integrator.F
 STEP NUMBER                  =           48
 CPU TIME [s]                 =   0.21659645484760404       0.38464227827110636     

 *******************************************************************************
 ENSEMBLE TYPE                =                                              NVE
 STEP NUMBER                  =                                               48
 TIME [fs]                    =                                         4.800000
 CONSERVED QUANTITY [hartree] =                               0.442361495875E+02

                                              INSTANTANEOUS             AVERAGES
 CPU TIME [s]                 =                        0.22                 0.38
 ENERGY DRIFT PER ATOM [K]    =         -0.442854642757E-03  -0.117594960904E-02
 POTENTIAL ENERGY[hartree]    =          0.223555848200E+02   0.223008467906E+02
 KINETIC ENERGY [hartree]     =          0.218805647675E+02   0.219352670654E+02
 TEMPERATURE [K]              =                     299.904              300.653
 *******************************************************************************

 FOBSH| Put former active state           1 in new active state           1
 FOBSH| ACTIVE STATE =            1

 ENERGY| Total FORCE_EVAL ( MIXED ) energy (a.u.):            22.361094088692244

 FOBSH| CASE1: no hop and no trivial crossing
 ENTER integrator.F
 STEP NUMBER                  =           49
 CPU TIME [s]                 =   0.21745088882744312       0.38123020909878669     

 *******************************************************************************
 ENSEMBLE TYPE                =                                              NVE
 STEP NUMBER                  =                                               49
 TIME [fs]                    =                                         4.900000
 CONSERVED QUANTITY [hartree] =                               0.442361515035E+02

                                              INSTANTANEOUS             AVERAGES
 CPU TIME [s]                 =                        0.22                 0.38
 ENERGY DRIFT PER ATOM [K]    =         -0.403464482462E-03  -0.116018460645E-02
 POTENTIAL ENERGY[hartree]    =          0.223610940887E+02   0.223020763273E+02
 KINETIC ENERGY [hartree]     =          0.218750574148E+02   0.219340382970E+02
 TEMPERATURE [K]              =                     299.828              300.636
 *******************************************************************************

 FOBSH| Put former active state           1 in new active state           1
 FOBSH| ACTIVE STATE =            1

 ENERGY| Total FORCE_EVAL ( MIXED ) energy (a.u.):            22.366245767605612

 FOBSH| CASE1: no hop and no trivial crossing
 ENTER integrator.F
 STEP NUMBER                  =           50
 CPU TIME [s]                 =   0.21751336427405477       0.37795587220229210     

 *******************************************************************************
 ENSEMBLE TYPE                =                                              NVE
 STEP NUMBER                  =                                               50
 TIME [fs]                    =                                         5.000000
 CONSERVED QUANTITY [hartree] =                               0.442361530440E+02

                                              INSTANTANEOUS             AVERAGES
 CPU TIME [s]                 =                        0.22                 0.38
 ENERGY DRIFT PER ATOM [K]    =         -0.371795724537E-03  -0.114441682881E-02
 POTENTIAL ENERGY[hartree]    =          0.223662457676E+02   0.223033597161E+02
 KINETIC ENERGY [hartree]     =          0.218699072764E+02   0.219327556766E+02
 TEMPERATURE [K]              =                     299.757              300.619
 *******************************************************************************

 FOBSH| Put former active state           1 in new active state           1
 FOBSH| ACTIVE STATE =            1

 ENERGY| Total FORCE_EVAL ( MIXED ) energy (a.u.):            22.371016173979349

 FOBSH| CASE1: no hop and no trivial crossing
 ENTER integrator.F
 STEP NUMBER                  =           51
 CPU TIME [s]                 =   0.21728922799229622       0.37480554584523335     

 *******************************************************************************
 ENSEMBLE TYPE                =                                              NVE
 STEP NUMBER                  =                                               51
 TIME [fs]                    =                                         5.100000
 CONSERVED QUANTITY [hartree] =                               0.442361542060E+02

                                              INSTANTANEOUS             AVERAGES
 CPU TIME [s]                 =                        0.22                 0.37
 ENERGY DRIFT PER ATOM [K]    =         -0.347907308394E-03  -0.112879899508E-02
 POTENTIAL ENERGY[hartree]    =          0.223710161740E+02   0.223046863133E+02
 KINETIC ENERGY [hartree]     =          0.218651380320E+02   0.219314298404E+02
 TEMPERATURE [K]              =                     299.692              300.601
 *******************************************************************************

 FOBSH| Put former active state           1 in new active state           1
 FOBSH| ACTIVE STATE =            1

 ENERGY| Total FORCE_EVAL ( MIXED ) energy (a.u.):            22.375387919377122

 FOBSH| CASE1: no hop and no trivial crossing
 ENTER integrator.F
 STEP NUMBER                  =           52
 CPU TIME [s]                 =   0.21691657695919275       0.37176921952050179     

 *******************************************************************************
 ENSEMBLE TYPE                =                                              NVE
 STEP NUMBER                  =                                               52
 TIME [fs]                    =                                         5.200000
 CONSERVED QUANTITY [hartree] =                               0.442361549624E+02

                                              INSTANTANEOUS             AVERAGES
 CPU TIME [s]                 =                        0.22                 0.37
 ENERGY DRIFT PER ATOM [K]    =         -0.332356231899E-03  -0.111348278810E-02
 POTENTIAL ENERGY[hartree]    =          0.223753879194E+02   0.223060459596E+02
 KINETIC ENERGY [hartree]     =          0.218607670430E+02   0.219300709404E+02
 TEMPERATURE [K]              =                     299.632              300.582
 *******************************************************************************

 FOBSH| Put former active state           1 in new active state           1
 FOBSH| ACTIVE STATE =            1

 ENERGY| Total FORCE_EVAL ( MIXED ) energy (a.u.):            22.379350122403963

 FOBSH| CASE1: no hop and no trivial crossing
 ENTER integrator.F
 STEP NUMBER                  =           53
 CPU TIME [s]                 =   0.21793066710233688       0.36886660532393262     

 *******************************************************************************
 ENSEMBLE TYPE                =                                              NVE
 STEP NUMBER                  =                                               53
 TIME [fs]                    =                                         5.300000
 CONSERVED QUANTITY [hartree] =                               0.442361553518E+02
[...]
 TIME [fs]                    =                                        19.000000
 CONSERVED QUANTITY [hartree] =                               0.442360581394E+02

                                              INSTANTANEOUS             AVERAGES
 CPU TIME [s]                 =                        0.20                 0.26
 ENERGY DRIFT PER ATOM [K]    =         -0.232286775400E-02  -0.100461354715E-02
 POTENTIAL ENERGY[hartree]    =          0.222041506050E+02   0.223924352060E+02
 KINETIC ENERGY [hartree]     =          0.220319075344E+02   0.218436870380E+02
 TEMPERATURE [K]              =                     301.978              299.398
 *******************************************************************************

 FOBSH| Put former active state           1 in new active state           1
 FOBSH| ACTIVE STATE =            1

 ENERGY| Total FORCE_EVAL ( MIXED ) energy (a.u.):            22.202563170126012

 FOBSH| Possible trivial crossing
 FOBSH| CASE2: no hop and maybe a crossing, final overlap is :  0.17467429077136926     
 FOBSH| We were localized on molecule          17
 FOBSH| And now on molecule          22
 Before,    After
           1           1
 ENTER integrator.F
 STEP NUMBER                  =          191
 CPU TIME [s]                 =   0.21045572869479656       0.26386822099402479     

 *******************************************************************************
 ENSEMBLE TYPE                =                                              NVE
 STEP NUMBER                  =                                              191
 TIME [fs]                    =                                        19.100000
 CONSERVED QUANTITY [hartree] =                               0.442360644970E+02

                                              INSTANTANEOUS             AVERAGES
 CPU TIME [s]                 =                        0.21                 0.26
 ENERGY DRIFT PER ATOM [K]    =         -0.219216598491E-02  -0.101083109918E-02
 POTENTIAL ENERGY[hartree]    =          0.222025631701E+02   0.223914411116E+02
 KINETIC ENERGY [hartree]     =          0.220335013269E+02   0.218446808301E+02
 TEMPERATURE [K]              =                     302.000              299.412
 *******************************************************************************

 FOBSH| Put former active state           1 in new active state           1
 FOBSH| ACTIVE STATE =            1

 ENERGY| Total FORCE_EVAL ( MIXED ) energy (a.u.):            22.201845315002995

 FOBSH| CASE1: no hop and no trivial crossing
 ENTER integrator.F
 STEP NUMBER                  =          192
 CPU TIME [s]                 =   0.19764996320009232       0.26352333423468138     

 *******************************************************************************
 ENSEMBLE TYPE                =                                              NVE
 STEP NUMBER                  =                                              192
 TIME [fs]                    =                                        19.200000
 CONSERVED QUANTITY [hartree] =                               0.442360634653E+02

                                              INSTANTANEOUS             AVERAGES
 CPU TIME [s]                 =                        0.20                 0.26
 ENERGY DRIFT PER ATOM [K]    =         -0.221337622214E-02  -0.101709435503E-02
 POTENTIAL ENERGY[hartree]    =          0.222018453150E+02   0.223904536335E+02
 KINETIC ENERGY [hartree]     =          0.220342181503E+02   0.218456680037E+02
 TEMPERATURE [K]              =                     302.010              299.425
 *******************************************************************************

 FOBSH| Put former active state           1 in new active state           1
 FOBSH| ACTIVE STATE =            1

 ENERGY| Total FORCE_EVAL ( MIXED ) energy (a.u.):            22.202023881779962

 FOBSH| CASE1: no hop and no trivial crossing
 ENTER integrator.F
 STEP NUMBER                  =          193
 CPU TIME [s]                 =   0.19660574989393353       0.26317661099975520     

 *******************************************************************************
 ENSEMBLE TYPE                =                                              NVE
 STEP NUMBER                  =                                              193
 TIME [fs]                    =                                        19.300000
 CONSERVED QUANTITY [hartree] =                               0.442360639692E+02

                                              INSTANTANEOUS             AVERAGES
 CPU TIME [s]                 =                        0.20                 0.26
 ENERGY DRIFT PER ATOM [K]    =         -0.220301600153E-02  -0.102323902678E-02
 POTENTIAL ENERGY[hartree]    =          0.222020238818E+02   0.223894773135E+02
 KINETIC ENERGY [hartree]     =          0.220340400874E+02   0.218466440248E+02
 TEMPERATURE [K]              =                     302.007              299.439
 *******************************************************************************

 FOBSH| Put former active state           1 in new active state           1
 FOBSH| ACTIVE STATE =            1

 ENERGY| Total FORCE_EVAL ( MIXED ) energy (a.u.):            22.203091193380956

 FOBSH| CASE1: no hop and no trivial crossing
 ENTER integrator.F
 STEP NUMBER                  =          194
 CPU TIME [s]                 =   0.19664330221712589       0.26283365579984475     

 *******************************************************************************
 ENSEMBLE TYPE                =                                              NVE
 STEP NUMBER                  =                                              194
 TIME [fs]                    =                                        19.400000
 CONSERVED QUANTITY [hartree] =                               0.442360650017E+02

                                              INSTANTANEOUS             AVERAGES
 CPU TIME [s]                 =                        0.20                 0.26
 ENERGY DRIFT PER ATOM [K]    =         -0.218179004106E-02  -0.102921093922E-02
 POTENTIAL ENERGY[hartree]    =          0.222030911934E+02   0.223885165603E+02
 KINETIC ENERGY [hartree]     =          0.220329738083E+02   0.218476044876E+02
 TEMPERATURE [K]              =                     301.993              299.452
 *******************************************************************************

 FOBSH| Put former active state           1 in new active state           1
 FOBSH| ACTIVE STATE =            1

 ENERGY| Total FORCE_EVAL ( MIXED ) energy (a.u.):            22.205030897690609

 FOBSH| CASE1: no hop and no trivial crossing
 ENTER integrator.F
 STEP NUMBER                  =          195
 CPU TIME [s]                 =   0.19753977190703154       0.26249881536962522     

 *******************************************************************************
 ENSEMBLE TYPE                =                                              NVE
 STEP NUMBER                  =                                              195
 TIME [fs]                    =                                        19.500000
 CONSERVED QUANTITY [hartree] =                               0.442360665037E+02

                                              INSTANTANEOUS             AVERAGES
 CPU TIME [s]                 =                        0.20                 0.26
 ENERGY DRIFT PER ATOM [K]    =         -0.215091073764E-02  -0.103496324588E-02
 POTENTIAL ENERGY[hartree]    =          0.222050308977E+02   0.223875756082E+02
 KINETIC ENERGY [hartree]     =          0.220310356061E+02   0.218485451600E+02
 TEMPERATURE [K]              =                     301.966              299.465
 *******************************************************************************

 FOBSH| Put former active state           1 in new active state           1
 FOBSH| ACTIVE STATE =            1

 ENERGY| Total FORCE_EVAL ( MIXED ) energy (a.u.):            22.207818833943197

 FOBSH| CASE1: no hop and no trivial crossing
 ENTER integrator.F
 STEP NUMBER                  =          196
 CPU TIME [s]                 =   0.19710526475682855       0.26216517480527418     

 *******************************************************************************
 ENSEMBLE TYPE                =                                              NVE
 STEP NUMBER                  =                                              196
 TIME [fs]                    =                                        19.600000
 CONSERVED QUANTITY [hartree] =                               0.442360685181E+02

                                              INSTANTANEOUS             AVERAGES
 CPU TIME [s]                 =                        0.20                 0.26
 ENERGY DRIFT PER ATOM [K]    =         -0.210949974450E-02  -0.104044557495E-02
 POTENTIAL ENERGY[hartree]    =          0.222078188339E+02   0.223866584818E+02
 KINETIC ENERGY [hartree]     =          0.220282496841E+02   0.218494620198E+02
 TEMPERATURE [K]              =                     301.928              299.477
 *******************************************************************************

 FOBSH| Put former active state           1 in new active state           1
 FOBSH| ACTIVE STATE =            1

 ENERGY| Total FORCE_EVAL ( MIXED ) energy (a.u.):            22.211423268480647

 FOBSH| CASE1: no hop and no trivial crossing
 ENTER integrator.F
 STEP NUMBER                  =          197
 CPU TIME [s]                 =   0.19687698734924197       0.26183376268620800     

 *******************************************************************************
 ENSEMBLE TYPE                =                                              NVE
 STEP NUMBER                  =                                              197
 TIME [fs]                    =                                        19.700000
 CONSERVED QUANTITY [hartree] =                               0.442360709625E+02

                                              INSTANTANEOUS             AVERAGES
 CPU TIME [s]                 =                        0.20                 0.26
 ENERGY DRIFT PER ATOM [K]    =         -0.205924642828E-02  -0.104561715289E-02
 POTENTIAL ENERGY[hartree]    =          0.222114232685E+02   0.223857689629E+02
 KINETIC ENERGY [hartree]     =          0.220246476940E+02   0.218503512872E+02
 TEMPERATURE [K]              =                     301.878              299.489
 *******************************************************************************

 FOBSH| Put former active state           1 in new active state           1
 FOBSH| ACTIVE STATE =            1

 ENERGY| Total FORCE_EVAL ( MIXED ) energy (a.u.):            22.215805379688316

 FOBSH| CASE1: no hop and no trivial crossing
 ENTER integrator.F
 STEP NUMBER                  =          198
 CPU TIME [s]                 =   0.19729923503473401       0.26150783072837230     

 *******************************************************************************
 ENSEMBLE TYPE                =                                              NVE
 STEP NUMBER                  =                                              198
 TIME [fs]                    =                                        19.800000
 CONSERVED QUANTITY [hartree] =                               0.442360738071E+02

                                              INSTANTANEOUS             AVERAGES
 CPU TIME [s]                 =                        0.20                 0.26
 ENERGY DRIFT PER ATOM [K]    =         -0.200076737467E-02  -0.105044114391E-02
 POTENTIAL ENERGY[hartree]    =          0.222158053797E+02   0.223849105610E+02
 KINETIC ENERGY [hartree]     =          0.220202684274E+02   0.218512094546E+02
 TEMPERATURE [K]              =                     301.818              299.501
 *******************************************************************************

 FOBSH| Put former active state           1 in new active state           1
 FOBSH| ACTIVE STATE =            1

 ENERGY| Total FORCE_EVAL ( MIXED ) energy (a.u.):            22.220919553118033

 FOBSH| CASE1: no hop and no trivial crossing
 ENTER integrator.F
 STEP NUMBER                  =          199
 CPU TIME [s]                 =   0.19775405200198293       0.26118745998100351     

 *******************************************************************************
 ENSEMBLE TYPE                =                                              NVE
 STEP NUMBER                  =                                              199
 TIME [fs]                    =                                        19.900000
 CONSERVED QUANTITY [hartree] =                               0.442360770457E+02

                                              INSTANTANEOUS             AVERAGES
 CPU TIME [s]                 =                        0.20                 0.26
 ENERGY DRIFT PER ATOM [K]    =         -0.193418763830E-02  -0.105488208107E-02
 POTENTIAL ENERGY[hartree]    =          0.222209195531E+02   0.223840864856E+02
 KINETIC ENERGY [hartree]     =          0.220151574925E+02   0.218520333141E+02
 TEMPERATURE [K]              =                     301.748              299.512
 *******************************************************************************

 FOBSH| Put former active state           1 in new active state           1
 FOBSH| ACTIVE STATE =            1

 ENERGY| Total FORCE_EVAL ( MIXED ) energy (a.u.):            22.226713930828840

 FOBSH| CASE1: no hop and no trivial crossing
 ENTER integrator.F
 STEP NUMBER                  =          200
 CPU TIME [s]                 =   0.19685204559937119       0.26086578290909535     

 *******************************************************************************
 ENSEMBLE TYPE                =                                              NVE
 STEP NUMBER                  =                                              200
 TIME [fs]                    =                                        20.000000
 CONSERVED QUANTITY [hartree] =                               0.442360806498E+02

                                              INSTANTANEOUS             AVERAGES
 CPU TIME [s]                 =                        0.20                 0.26
 ENERGY DRIFT PER ATOM [K]    =         -0.186009217026E-02  -0.105890813151E-02
 POTENTIAL ENERGY[hartree]    =          0.222267139308E+02   0.223832996228E+02
 KINETIC ENERGY [hartree]     =          0.220093667190E+02   0.218528199811E+02
 TEMPERATURE [K]              =                     301.669              299.523
 *******************************************************************************


 -------------------------------------------------------------------------------
 -                                                                             -
 -                                DBCSR STATISTICS                             -
 -                                                                             -
 -------------------------------------------------------------------------------
 COUNTER                                    TOTAL       BLAS       SMM       ACC
 flops total                                    0       0.0%      0.0%      0.0%
 flops max/rank                                 0       0.0%      0.0%      0.0%
 matmuls inhomo. stacks                         0       0.0%      0.0%      0.0%
 matmuls total                                  0       0.0%      0.0%      0.0%
 number of processed stacks                     0       0.0%      0.0%      0.0%
 average stack size                                     0.0       0.0       0.0
 marketing flops                     0.000000E+00
 -------------------------------------------------------------------------------

 MEMORY| Estimated peak process memory [MiB]                                 176

 -------------------------------------------------------------------------------
 -                                                                             -
 -                           R E F E R E N C E S                               -
 -                                                                             -
 -------------------------------------------------------------------------------
 
 CP2K version 4.0 (Development Version), the CP2K developers group (2015).
 CP2K is freely available from https://www.cp2k.org/ .

 Borstnik, U; VandeVondele, J; Weber, V; Hutter, J. 
 PARALLEL COMPUTING, 40 (5-6), 47-58 (2014). 
 Sparse matrix multiplication: The distributed block-compressed sparse
 row library.
 http://dx.doi.org/10.1016/j.parco.2014.03.012


 Hutter, J; Iannuzzi, M; Schiffmann, F; VandeVondele, J. 
 WILEY INTERDISCIPLINARY REVIEWS-COMPUTATIONAL MOLECULAR SCIENCE, 4 (1), 15-25 (2014). 
 CP2K: atomistic simulations of condensed matter systems.
 http://dx.doi.org/10.1002/wcms.1159


 Frigo, M; Johnson, SG. 
 PROCEEDINGS OF THE IEEE, 93 (2), 216-231 (2005). 
 The design and implementation of FFTW3.
 http://dx.doi.org/10.1109/JPROC.2004.840301


 -------------------------------------------------------------------------------
 -                                                                             -
 -                                T I M I N G                                  -
 -                                                                             -
 -------------------------------------------------------------------------------
 SUBROUTINE                       CALLS  ASD         SELF TIME        TOTAL TIME
                                MAXIMUM       AVERAGE  MAXIMUM  AVERAGE  MAXIMUM
 CP2K                                 1  1.0    0.046    0.046  121.471  121.471
 topology_control                     3  4.0    0.039    0.039   68.365   68.365
 connectivity_control                 3  5.0    0.099    0.099   64.789   64.789
 read_topology_psf                 1920  6.0   34.188   34.188   64.475   64.475
 qs_mol_dyn_low                       1  2.0    0.126    0.126   52.482   52.482
 velocity_verlet                    200  3.0    7.097    7.097   49.753   49.753
 fist_calc_energy_force             402  4.0    0.119    0.119   44.502   44.502
 fist_create_force_env                2  2.0    0.000    0.000   40.343   40.343
 fist_init                            2  3.0    0.027    0.027   40.343   40.343
 force_nonbond                      201  5.0   34.065   34.065   34.065   34.065
 parser_read_line                210654  7.2    2.143    2.143   32.200   32.200
 parser_read_line_low              1986  8.0   30.024   30.024   30.057   30.057
 mixed_create_force_env               1  2.0    0.001    0.001   28.588   28.588
 mixed_init                           1  3.0    0.000    0.000   28.587   28.587
 force_intra_control                402  5.0    6.954    6.954    6.954    6.954
 list_control                       201  5.0    0.093    0.093    3.289    3.289
 build_fist_neighbor_lists            3  5.7    0.000    0.000    3.196    3.196
 coordinate_control                   3  5.0    0.000    0.000    2.689    2.689
 coordinate_control_READ_COORDI       3  6.0    0.000    0.000    2.688    2.688
 read_coordinate_xyz                  3  7.0    1.087    1.087    2.688    2.688
 build_neighbor_lists                 3  6.7    2.570    2.570    2.596    2.596
 -------------------------------------------------------------------------------

 The number of warnings for this run is : 1
 
 -------------------------------------------------------------------------------
  **** **** ******  **  PROGRAM ENDED AT                 2021-01-14 05:49:25.046
 ***** ** ***  *** **   PROGRAM RAN ON                   bulstake.phys.ucl.ac.uk
 **    ****   ******    PROGRAM RAN BY                                 sgiannini
 ***** **    ** ** **   PROGRAM PROCESS ID                                 12714
  **** **  *******  **  PROGRAM STOPPED IN /scratch/sgiannini/FOB-SH-REGTESTS_/3
                                           2-XXXX_code_extension_V2/run-fssh-ANT
                                           _TrESP_BOMD_NOREORD
