#     Step Nr.          Time[fs]        Kin.[a.u.]          Temp[K]            Pot.[a.u.]        Cons Qty[a.u.]        UsedTime[s]
         0            0.000000         0.393255336       335.168867385         0.340106658         0.733361994         0.000000000
         1            0.100000         0.393444427       335.330028013         0.339917507         0.733361934         0.209426604
         2            0.200000         0.393679886       335.530708465         0.339681939         0.733361826         0.034003537
         3            0.300000         0.393960123       335.769552559         0.339401548         0.733361671         0.032004835
         4            0.400000         0.394282792       336.044560846         0.339078681         0.733361473         0.031390751
         5            0.500000         0.394644814       336.353109621         0.338716419         0.733361233         0.033839954
         6            0.600000         0.395042413       336.691980754         0.338318536         0.733360949         0.035061250
         7            0.700000         0.395471172       337.057408862         0.337889457         0.733360629         0.054834893
         8            0.800000         0.395926074       337.445119224         0.337434202         0.733360276         0.049880687
         9            0.900000         0.396372436       337.825550385         0.336987453         0.733359889         0.033459671
        10            1.000000         0.396833511       338.218521236         0.336525967         0.733359477         0.032518588
        11            1.100000         0.397302812       338.618503428         0.336056234         0.733359046         0.032704739
        12            1.200000         0.397773537       339.019699639         0.335585063         0.733358600         0.030653756
        13            1.300000         0.398238656       339.416117134         0.335119490         0.733358146         0.030444168
        14            1.400000         0.398691007       339.801652883         0.334666682         0.733357689         0.061690733
        15            1.500000         0.399123399       340.170177159         0.334233839         0.733357238         0.065895485
        16            1.600000         0.399528709       340.515620842         0.333828087         0.733356797         0.055267584
        17            1.700000         0.399899998       340.832067752         0.333456375         0.733356373         0.038029667
        18            1.800000         0.400230612       341.113847984         0.333125364         0.733355977         0.032826817
        19            1.900000         0.400514288       341.355622785         0.332841325         0.733355613         0.065158593
        20            2.000000         0.400745252       341.552472218         0.332610032         0.733355284         0.065275799
        21            2.100000         0.400918329       341.699983910         0.332436670         0.733354999         0.060299028
        22            2.200000         0.401029019       341.794324967         0.332325744         0.733354763         0.074131304
        23            2.300000         0.401073585       341.832307917         0.332280995         0.733354580         0.071063761
        24            2.400000         0.401049106       341.811444663         0.332305348         0.733354454         0.056069406
        25            2.500000         0.400953529       341.729984860         0.332400857         0.733354386         0.056691639
        26            2.600000         0.400785697       341.586942975         0.332568678         0.733354375         0.079851035
        27            2.700000         0.400545360       341.382105468         0.332809057         0.733354417         0.072521297
        28            2.800000         0.400233191       341.116046049         0.333121365         0.733354556         0.055089924
        29            2.900000         0.399850765       340.790106721         0.333503951         0.733354716         0.059066154
        30            3.000000         0.399400515       340.406361696         0.333954414         0.733354929         0.073853184
        31            3.100000         0.398885722       339.967606768         0.334469468         0.733355190         0.065750293
        32            3.200000         0.398310464       339.477318602         0.335045033         0.733355497         0.107527206
        33            3.300000         0.397679560       338.939603230         0.335676287         0.733355847         0.051310105
        34            3.400000         0.396998517       338.359154683         0.336357719         0.733356235         0.077915728
        35            3.500000         0.396273468       337.741200658         0.337083191         0.733356659         0.120879317
        36            3.600000         0.395511098       337.091437838         0.337846015         0.733357113         0.098664019
        37            3.700000         0.394718577       336.415977917         0.338638978         0.733357555         0.097684115
        38            3.800000         0.393903456       335.721255744         0.339454603         0.733358059         0.083388127
        39            3.900000         0.393073597       335.013972346         0.340284969         0.733358567         0.065550525
        40            4.000000         0.392237105       334.301035325         0.341121978         0.733359083         0.054229587
        41            4.100000         0.391402207       333.589457980         0.341957394         0.733359601         0.061824009
        42            4.200000         0.390577176       332.886289018         0.342782939         0.733360115         0.075729515
        43            4.300000         0.389770229       332.198533667         0.343590391         0.733360620         0.067072058
        44            4.400000         0.388989343       331.532990476         0.344371673         0.733361016         0.065265795
        45            4.500000         0.388242443       330.896412113         0.345119095         0.733361538         0.041027984
        46            4.600000         0.387537115       330.295266097         0.345824865         0.733361980         0.067989249
        47            4.700000         0.386880342       329.735502412         0.346482047         0.733362389         0.053054441
        48            4.800000         0.386278694       329.222722128         0.347084068         0.733362762         0.052929979
        49            4.900000         0.385738161       328.762029762         0.347624932         0.733363093         0.084332023
        50            5.000000         0.385264014       328.357917696         0.348099304         0.733363319         0.077537280
        51            5.100000         0.384860928       328.014369576         0.348502639         0.733363567         0.067664294
        52            5.200000         0.384532800       327.734708478         0.348830951         0.733363750         0.053827489
        53            5.300000         0.384282587       327.521453362         0.349081295         0.733363881         0.031340668
        54            5.400000         0.384112442       327.376440171         0.349251514         0.733363956         0.032502051
        55            5.500000         0.384023630       327.300746774         0.349340344         0.733363975         0.033106940
        56            5.600000         0.384016510       327.294678154         0.349347424         0.733363934         0.037423540
        57            5.700000         0.384090526       327.357761192         0.349273312         0.733363838         0.051123073
        58            5.800000         0.384244209       327.488744403         0.349119476         0.733363685         0.052906949
        59            5.900000         0.384475193       327.685610596         0.348888284         0.733363477         0.067082604
        60            6.000000         0.384780237       327.945597050         0.348582981         0.733363217         0.053514225
        61            6.100000         0.385155254       328.265222201         0.348207654         0.733362908         0.053357612
        62            6.200000         0.385595362       328.640323259         0.347767190         0.733362552         0.059963021
        63            6.300000         0.386094931       329.066102261         0.347267221         0.733362152         0.053971283
        64            6.400000         0.386647646       329.537177722         0.346714067         0.733361713         0.049108399
        65            6.500000         0.387246578       330.047643281         0.346114663         0.733361241         0.028520871
        66            6.600000         0.387884255       330.591131032         0.345476486         0.733360741         0.027507501
        67            6.700000         0.388552748       331.160882766         0.344807513         0.733360261         0.027733287
        68            6.800000         0.389243756       331.749824626         0.344115965         0.733359721         0.027176386
        69            6.900000         0.389948708       332.350650535         0.343410462         0.733359170         0.057453806
        70            7.000000         0.390658850       332.955899839         0.342699765         0.733358616         0.053299561
        71            7.100000         0.391365346       333.558041712         0.341992716         0.733358063         0.053153371
        72            7.200000         0.392059382       334.149563433         0.341298136         0.733357518         0.053419901
        73            7.300000         0.392732260       334.723052915         0.340624728         0.733356988         0.053440247
        74            7.400000         0.393375501       335.271283013         0.339980975         0.733356476         0.045933401
        75            7.500000         0.393980931       335.787287076         0.339375060         0.733355991         0.053540090
        76            7.600000         0.394540775       336.264438354         0.338814761         0.733355536         0.053804394
        77            7.700000         0.395047740       336.696520891         0.338307376         0.733355116         0.069641523
        78            7.800000         0.395495082       337.077787428         0.337859653         0.733354735         0.054592149
        79            7.900000         0.395876677       337.403018295         0.337477717         0.733354394         0.055207347
        80            8.000000         0.396187077       337.667569990         0.337167020         0.733354097         0.052737180
        81            8.100000         0.396421550       337.867409842         0.336932296         0.733353846         0.066995854
        82            8.200000         0.396576119       337.999148426         0.336777523         0.733353643         0.054190198
        83            8.300000         0.396647585       338.060057627         0.336705902         0.733353486         0.054416291
        84            8.400000         0.396633542       338.048089261         0.336719835         0.733353377         0.053560097
        85            8.500000         0.396532394       337.961881574         0.336820708         0.733353102         0.053252852
        86            8.600000         0.396343351       337.800761257         0.337009732         0.733353083         0.067838652
        87            8.700000         0.395936596       337.454086848         0.337416520         0.733353116         0.042273609
        88            8.800000         0.395444570       337.034736593         0.337908634         0.733353205         0.053734126
        89            8.900000         0.394868961       336.544148573         0.338484387         0.733353348         0.053253533
        90            9.000000         0.394212345       335.984519786         0.339141200         0.733353546         0.054281715
        91            9.100000         0.393478177       335.358793226         0.339875620         0.733353797         0.067516649
        92            9.200000         0.392670750       334.670628576         0.340683350         0.733354100         0.054276789
        93            9.300000         0.391795155       333.924364731         0.341559295         0.733354450         0.054058118
        94            9.400000         0.390857224       333.124972725         0.342497620         0.733354844         0.053802907
        95            9.500000         0.389863463       332.277997009         0.343491812         0.733355275         0.053565642
        96            9.600000         0.388820978       331.389493600         0.344534762         0.733355740         0.054395393
        97            9.700000         0.387737389       330.465958353         0.345618844         0.733356233         0.053739380
        98            9.800000         0.386620747       329.514252065         0.346736000         0.733356748         0.068417320
        99            9.900000         0.385479439       328.541522282         0.347877839         0.733357278         0.053716376
       100           10.000000         0.384322065       327.555100922         0.349035572         0.733357637         0.053719616
       101           10.100000         0.383157417       326.562478842         0.350200739         0.733358156         0.066539064
       102           10.200000         0.381994325       325.571183892         0.351364371         0.733358696         0.066353623
       103           10.300000         0.380841512       324.588648810         0.352517715         0.733359227         0.081916397
       104           10.400000         0.379707560       323.622189139         0.353652181         0.733359741         0.062751876
       105           10.500000         0.378600797       322.678902325         0.354759436         0.733360233         0.055689871
       106           10.600000         0.377529198       321.765586116         0.355831500         0.733360698         0.053178564
       107           10.700000         0.376500293       320.888657307         0.356860839         0.733361132         0.040066285
       108           10.800000         0.375521080       320.054080852         0.357840448         0.733361529         0.064191636
       109           10.900000         0.374597957       319.267308831         0.358763926         0.733361883         0.055701360
       110           11.000000         0.373736648       318.533221185         0.359625543         0.733362191         0.051494855
       111           11.100000         0.372942147       317.856072968         0.360420304         0.733362451         0.050761208
       112           11.200000         0.372218668       317.239456716         0.361143991         0.733362658         0.052839529
       113           11.300000         0.371569615       316.686273487         0.361793198         0.733362813         0.063587595
       114           11.400000         0.370997551       316.198707502         0.362365363         0.733362915         0.051499903
       115           11.500000         0.370504183       315.778212925         0.362858781         0.733362964         0.040202377
       116           11.600000         0.370090355       315.425510338         0.363272605         0.733362960         0.069887880
       117           11.700000         0.369756063       315.140595207         0.363606841         0.733362904         0.052893324
       118           11.800000         0.369500470       314.922755329         0.363862327         0.733362797         0.053149248
       119           11.900000         0.369321931       314.770587840         0.364040711         0.733362643         0.057861920
       120           12.000000         0.369218030       314.682033416         0.364144412         0.733362442         0.054854233
       121           12.100000         0.369185625       314.654414820         0.364176576         0.733362201         0.052870702
       122           12.200000         0.369220899       314.684478658         0.364141021         0.733361920         0.050890910
       123           12.300000         0.369319419       314.768446454         0.364042186         0.733361605         0.026718024
       124           12.400000         0.369476200       314.902069828         0.363885060         0.733361260         0.026851283
       125           12.500000         0.369685774       315.080688967         0.363675115         0.733360890         0.054324189
       126           12.600000         0.369942266       315.299294613         0.363418231         0.733360497         0.046947278
       127           12.700000         0.370239466       315.552596280         0.363120620         0.733360086         0.053266263
       128           12.800000         0.370570920       315.835092314         0.362788747         0.733359667         0.054124909
       129           12.900000         0.370930012       316.141144059         0.362429234         0.733359246         0.053706622
       130           13.000000         0.371310058       316.465055054         0.362048766         0.733358825         0.053538300
       131           13.100000         0.371704422       316.801168818         0.361653992         0.733358414         0.056593323
       132           13.200000         0.372106632       317.143969108         0.361251392         0.733358023         0.052974397
       133           13.300000         0.372510503       317.488185805         0.360847156         0.733357659         0.053428710
       134           13.400000         0.372910284       317.828916732         0.360447046         0.733357330         0.058221325
       135           13.500000         0.373300779       318.161732772         0.360056268         0.733357047         0.040340811
       136           13.600000         0.373677455       318.482771709         0.359679357         0.733356812         0.053515794
       137           13.700000         0.374036537       318.788814737         0.359320095         0.733356632         0.066514563
       138           13.800000         0.374375039       319.077317139         0.358981466         0.733356504         0.027130015
       139           13.900000         0.374690776       319.346417577         0.358665650         0.733356426         0.027713513
       140           14.000000         0.374982353       319.594927415         0.358374042         0.733356395         0.040423801
       141           14.100000         0.375249128       319.822297251         0.358107282         0.733356409         0.052771261
       142           14.200000         0.375491167       320.028586247         0.357865299         0.733356466         0.052639456
       143           14.300000         0.375709205       320.214418217         0.357647347         0.733356552         0.026298653
       144           14.400000         0.375904638       320.380984198         0.357452260         0.733356897         0.026497349
       145           14.500000         0.376079454       320.529978919         0.357277608         0.733357062         0.039517934
       146           14.600000         0.376236185       320.663559726         0.357121075         0.733357260         0.053450499
       147           14.700000         0.378355921       322.470196064         0.355001441         0.733357362         0.057268873
       148           14.800000         0.378631944       322.705449081         0.354725540         0.733357484         0.027897839
       149           14.900000         0.378905333       322.938456364         0.354452287         0.733357620         0.027346684
       150           15.000000         0.379178601       323.171360953         0.354179190         0.733357791         0.052945741
       151           15.100000         0.379454758       323.406727616         0.353903233         0.733357991         0.043052638
       152           15.200000         0.379737194       323.647446194         0.353621016         0.733358211         0.058238737
       153           15.300000         0.380029579       323.896644117         0.353328864         0.733358444         0.054028289
       154           15.400000         0.380335762       324.157601062         0.353022924         0.733358686         0.053234281
       155           15.500000         0.380659667       324.433663813         0.352699260         0.733358928         0.027207473
       156           15.600000         0.381005212       324.728169274         0.352353952         0.733359165         0.027626202
       157           15.700000         0.381376206       325.044364873         0.351983185         0.733359391         0.027660163
       158           15.800000         0.381776272       325.385338305         0.351583328         0.733359600         0.027958186
       159           15.900000         0.382208783       325.753964909         0.351151028         0.733359811         0.040167326
       160           16.000000         0.382676718       326.152782691         0.350683234         0.733359953         0.052024763
       161           16.100000         0.383182639       326.583975736         0.350177446         0.733360085         0.028565710
       162           16.200000         0.383728666       327.049350976         0.349631516         0.733360182         0.027985988
       163           16.300000         0.384316353       327.550232531         0.349043888         0.733360241         0.027518138
       164           16.400000         0.384946663       328.087440952         0.348413598         0.733360261         0.029003650
       165           16.500000         0.385619916       328.661249868         0.347740323         0.733360238         0.028398246
       166           16.600000         0.386335764       329.271362733         0.347024408         0.733360172         0.028242921
       167           16.700000         0.387093164       329.916889357         0.346266898         0.733360062         0.044069380
       168           16.800000         0.387890353       330.596328559         0.345469552         0.733359905         0.053234870
       169           16.900000         0.388724860       331.307573294         0.344634843         0.733359704         0.066505499
       170           17.000000         0.389593497       332.047906029         0.343765963         0.733359459         0.040678080
       171           17.100000         0.390492375       332.814014042         0.342866797         0.733359172         0.066556402
       172           17.200000         0.391416938       333.602012830         0.341941907         0.733358845         0.054030765
       173           17.300000         0.392361997       334.407480696         0.340996448         0.733358446         0.054320576
       174           17.400000         0.393321740       335.225462979         0.340036319         0.733358060         0.053794900
       175           17.500000         0.394289814       336.050545670         0.339067815         0.733357629         0.062903920
       176           17.600000         0.395259408       336.876924458         0.338097764         0.733357173         0.062945221
       177           17.700000         0.396223282       337.698427421         0.337133412         0.733356694         0.080172818
       178           17.800000         0.397173854       338.508593931         0.336182344         0.733356199         0.095815102
       179           17.900000         0.398103286       339.300742188         0.335252408         0.733355694         0.066264018
       180           18.000000         0.399003562       340.068041728         0.334351621         0.733355184         0.089611800
       181           18.100000         0.399866585       340.803589776         0.333488087         0.733354672         0.065725680
       182           18.200000         0.400684266       341.500494233         0.332669899         0.733354165         0.063591758
       183           18.300000         0.401448622       342.151949650         0.331905050         0.733353673         0.053243151
       184           18.400000         0.402151862       342.751315969         0.331201336         0.733353198         0.071990259
       185           18.500000         0.402786490       343.292205545         0.330566257         0.733352748         0.063638709
       186           18.600000         0.403345399       343.768559634         0.330006928         0.733352327         0.031152202
       187           18.700000         0.403821955       344.174725122         0.329529986         0.733351941         0.033032857
       188           18.800000         0.404210087       344.505527336         0.329141508         0.733351595         0.055919513
       189           18.900000         0.404504365       344.756338139         0.328846929         0.733351293         0.051525956
       190           19.000000         0.404700079       344.923144463         0.328650962         0.733351041         0.071175747
       191           19.100000         0.404793305       345.002599940         0.328557538         0.733350843         0.076259566
       192           19.200000         0.404780954       344.992073877         0.328569746         0.733350701         0.076037306
       193           19.300000         0.404660841       344.889701610         0.328689777         0.733350617         0.031229634
       194           19.400000         0.404431708       344.694413353         0.328918886         0.733350594         0.029806444
       195           19.500000         0.404093268       344.405963483         0.329257363         0.733350631         0.030567350
       196           19.600000         0.403646221       344.024947885         0.329704511         0.733350732         0.041791016
       197           19.700000         0.403092254       343.552806162         0.330258641         0.733350895         0.055340191
       198           19.800000         0.402434052       342.991825073         0.330917068         0.733351120         0.053649805
       199           19.900000         0.401675280       342.345128292         0.331676123         0.733351402         0.053205559
       200           20.000000         0.400820557       341.616653750         0.332531188         0.733351744         0.039410783
