     248
 i =        0, time =        0.000, E =         0.3401066577
  C        -0.3705483167        0.4592425545        2.5113604931
  C        -0.8575133951        0.9673229463        1.2592485406
  C        -0.3477164222        0.4384796557        0.0982434005
  C        -0.8533274754        0.9294619390       -1.0999340446
  C         0.6228557115       -0.4968855563        2.6374531615
  H        -0.8236520650        0.8099691516        3.4042827111
  H        -1.5473288103        1.7726751332        1.1229588176
  H        -1.5948053708        1.7090997637       -0.9545943744
  H         1.1160905785       -0.9980714423        3.5095856589
  C         0.6663046577       -0.6140364507        0.1649903091
  C        -0.3240529628        0.4667494304       -2.3716973073
  C         1.0941441257       -1.0671257854        1.4176682819
  C         1.2093141557       -0.9491938223       -1.1435063394
  C         0.5543757217       -0.5597876954       -2.3289723633
  H        -0.8136872914        0.7221402990       -3.3191417928
  H         1.9482507728       -1.7201681703        1.4457918434
  H         1.9274548098       -1.7806298158       -1.3220290142
  H         0.9644065603       -0.9137982122       -3.2991588922
  C         5.0102968446       -0.8373810587        2.4177389830
  C         4.8773504996       -1.5004011548        1.2213537132
  C         5.0604764457       -0.7669078305        0.0080762019
  C         4.9264391440       -1.4587194004       -1.2701841245
  C         5.2409356840        0.5152972293        2.4978293961
  H         4.8824680103       -1.3455176631        3.3586144974
  H         4.8216234523       -2.5805984158        1.2224763282
  H         4.8338965932       -2.5571401574       -1.2984518107
  H         5.3060049387        1.1040954345        3.4667506560
  C         5.4512610166        0.5994664955        0.0561112227
  C         5.1249073947       -0.6796241314       -2.4123246332
  C         5.5128037140        1.2355951144        1.3233225774
  C         5.6429190820        1.3999715029       -1.0767292363
  C         5.4063957281        0.7121519142       -2.3120524572
  H         5.0248544613       -1.1115286239       -3.4220194828
  H         5.7408195559        2.2949060942        1.3614679677
  H         5.6442203683        2.4790910664       -1.0180546838
  H         5.6659482180        1.1336775303       -3.2948076726
  C        10.1442612503       -0.7640232529        2.4393638692
  C        10.6349386387       -1.3105270668        1.2136339291
  C        10.3004212291       -0.6413772379       -0.0013198458
  C        10.5614357307       -1.2794265108       -1.3062236706
  C         9.4325409434        0.4275303287        2.5481964288
  H        10.3649555275       -1.3068573020        3.3675819635
  H        11.1977090939       -2.2839181937        1.2779411219
  H        11.0642690412       -2.2681479917       -1.4733193652
  H         9.3275958505        0.9431704000        3.5149761177
  C         9.6182819888        0.5960924725        0.0847549946
  C        10.3120232692       -0.4571840807       -2.4148715692
  C         9.1754849497        1.1052550929        1.3622517858
  C         9.4044379106        1.3750002780       -1.1018011183
  C         9.6932615462        0.8366298739       -2.3327645227
  H        10.7206564086       -0.8106216597       -3.3763432943
  H         8.8031917360        2.0859620753        1.4880365689
  H         8.8112195351        2.3689773002       -1.0602688565
  H         9.4832732371        1.3898535786       -3.1128793524
  C        15.8402925827       -0.6034174782        3.5257775740
  C        16.3887311992       -0.8744505543        2.2382208733
  C        15.6568741667       -0.5772785712        1.0602417714
  C        16.2274401568       -0.9175172404       -0.1762142636
  C        14.4142362722        0.0981143726        1.1215712244
  C        13.8644248639        0.3307583936        2.4065629829
  C        14.6011743389        0.0238552545        3.6053353687
  H        16.3713511837       -0.7924784915        4.4646932905
  H        17.4070223003       -1.0898948537        2.1318777970
  H        17.1010416466       -1.5453280328       -0.1966190302
  H        12.7834744878        0.6377873964        2.3955579575
  H        14.2626648887        0.2571019176        4.5686126211
  C        15.6717201468       -0.4690301449       -1.4314994145
  C        13.7621998340        0.4552244695       -0.1204966139
  C        14.3867974628        0.1943324593       -1.3583618286
  C        16.1955581512       -0.9115775393       -2.6510459099
  H        12.7201328344        0.8716209515       -0.1399768894
  C        13.7576858891        0.4857889731       -2.5472919683
  C        15.5145983361       -0.5956092248       -3.8863156394
  H        17.0570938257       -1.5014869964       -2.6637435815
  C        14.3298997450        0.0998296842       -3.8219222226
  H        12.8975096325        1.1490647788       -2.5334948449
  H        15.9497557783       -0.9057524032       -4.8105575776
  H        13.8232469313        0.4640468152       -4.7787878088
  C        20.2005595792       -0.6116300612        3.6661300008
  C        20.6014642107       -1.3027943579        2.4989217059
  C        20.3054250804       -0.7641163006        1.2202635520
  C        20.7368028562       -1.4401684812       -0.0318281629
  C        19.7448688104        0.5000784141        1.1637823034
  C        19.3371287707        1.1909961167        2.2934313433
  C        19.5446904772        0.6112827447        3.5593730975
  H        20.4321084194       -1.0057983760        4.6894193246
  H        21.1860485311       -2.2064629255        2.6337925914
  H        21.0573073070       -2.4518551209       -0.1144430541
  H        18.9245956497        2.2400178108        2.2323392664
  H        19.2742565332        1.1578693178        4.4645999721
  C        20.4873901195       -0.7570677281       -1.2253787433
  C        19.4797752667        1.0762361307       -0.0704392957
  C        19.8648632373        0.4923402954       -1.2881567039
  C        20.8097604215       -1.4283482103       -2.4499390881
  H        19.1307858320        2.0563156899       -0.1276282608
  C        19.5240265645        1.0963713524       -2.5178538449
  C        20.3557430132       -0.8514262079       -3.6953575296
  H        21.2586730131       -2.3974610249       -2.5367720338
  C        19.7496842363        0.4138716880       -3.6795419585
  H        19.1209301863        2.1299526526       -2.5314707999
  H        20.4889758617       -1.3088475389       -4.5817890309
  H        19.3231308161        0.8378695826       -4.5833895820
  C        25.1457574708       -0.6284071793        3.8362693743
  C        25.7536631778       -1.2109719534        2.6650414341
  C        25.2789161082       -0.7723379789        1.3785546984
  C        25.7828810919       -1.3076317649        0.1770573145
  C        24.3053451372        0.2899343188        1.3489397867
  C        23.6429076037        0.8051477748        2.5284224733
  C        24.0986633350        0.3642963356        3.8085106414
  H        25.5072133027       -1.0635276763        4.8379052775
  H        26.4648158708       -1.9850200797        2.8124195715
  H        26.5052177499       -2.1327513496        0.2500253631
  H        22.9212530565        1.6937945789        2.5003473991
  H        23.6927222521        0.7101708089        4.8166230381
  C        25.4005949029       -0.7759089220       -1.0760747589
  C        23.9779847349        0.7979405195        0.1156482885
  C        24.4585750772        0.3108260820       -1.1238394615
  C        25.8532870239       -1.3384844582       -2.3268343704
  H        23.1975134547        1.6087810231       -0.0401137410
  C        24.0920782030        0.8168123216       -2.3573822083
  C        25.5289068245       -0.7496099266       -3.5357772124
  H        26.4738731663       -2.1537350781       -2.2645107825
  C        24.6549300289        0.3206616896       -3.5543534022
  H        23.3492757490        1.5445316263       -2.4858968653
  H        26.0199630518       -1.0947810141       -4.4384652042
  H        24.2391622460        0.6857840653       -4.4903305312
 Ne       -28.8971353874     -317.7874681011     -169.3590069333
 Ne      -299.4265829026      161.7941804228      -57.6602136955
 Ne      -254.1822876945     -216.3770905451      -16.6938370882
 Ne      -372.4027539903     -105.4170037233      -62.2862294657
 Ne       255.8647930754     -247.5559423939      -41.1112101894
 Ne       -92.3632528280        1.7980045167     -272.4738005798
 Ne      -439.6727167688      328.9982615294     -424.0026019027
 Ne       -28.2328646694     -153.8647619456     -159.9207227640
 Ne       174.9075621480       28.7240339706      292.2618120873
 Ne      -162.9954634578      142.6439798663      -45.1740211159
 Ne      -413.1163698023       65.4716042404      281.4408843495
 Ne        -8.5175497836     -229.5296479974     -148.9781776701
 Ne       142.2983882688      -55.1705396571      209.3493849621
 Ne       107.6589851228     -246.1252209191       89.4057068843
 Ne        44.7558462622      190.1213130880      166.4869447229
 Ne      -202.3746760445      -99.6676989053     -260.7045198611
 Ne      -187.1279377260      216.3903224803      189.2466249904
 Ne         7.8454725326        3.0538012277     -148.2883740303
 Ne      -330.3775703433     -122.9373542670        8.7681576899
 Ne       -88.2331221339      -28.2848477222       55.1068704703
 Ne       337.7022866392      255.3067203592      280.7540056780
 Ne       475.1446753196       45.7203775648      273.1534232802
 Ne      -353.5374572240     -203.5214827399     -138.3436431352
 Ne       -96.0402599822       17.8620120931      133.3226901359
 Ne      -388.8077898223      253.0002673929       38.6998344568
 Ne      -207.3247737217     -241.6803397454      -34.9537063337
 Ne       -11.4170733214     -139.0247538265       25.5757775925
 Ne      -220.7184880527      -25.0287851362      208.5952409703
 Ne       272.8224947023     -110.6846084969       91.6523655462
 Ne        46.4231688679      -99.2336206609     -217.1080462867
 Ne      -255.4679949899     -348.6653829650      -92.9375425116
 Ne        61.7331819744     -349.0729610787      128.4227878605
 Ne      -215.0930282276       46.1163091066      318.9826522415
 Ne        49.3144104834     -164.2541202534     -491.0200382848
 Ne       -95.1202230949      -14.6961846574     -139.1794545858
 Ne      -375.4726651415      131.0073244645      544.2164644016
 Ne      -131.0152664882     -188.1942198408        0.6306214814
 Ne       232.7406384261     -272.2599046312     -364.5279400565
 Ne      -248.7758819668      -85.5148282369     -162.0373102500
 Ne       467.3288562615      345.8948237811      117.6833484604
 Ne       -28.1433436857       50.6929762095      198.0400817560
 Ne      -194.2263963129      -76.1665863260      -71.1841251545
 Ne      -118.0420326165     -278.1872138700     -292.7138055422
 Ne       -43.9427955117     -156.5635466140      243.8491769167
 Ne       497.5354337797       23.5834545859      189.7432324143
 Ne      -263.0208190519      224.7884500285      108.2183453976
 Ne      -397.9901354231     -118.6604744154      388.2752316392
 Ne       458.9322161811      438.1378702322     -169.6715734720
 Ne       -68.7820996705     -191.3220120203      431.4845914997
 Ne       603.0650079654      149.0887257595      257.9628330355
 Ne       -85.2242457469     -106.6516141196     -310.1335570749
 Ne       137.4942751225      246.2878108921     -230.1595782556
 Ne       115.4225380392     -214.5693593496      236.7247398740
 Ne      -624.9627794817      408.0176782363     -607.0628659824
 Ne       -30.3260802132       52.6748757948      -82.9427666880
 Ne      -197.6844230342      -17.9698296824     -397.8199669522
 Ne        99.9421050012       87.8981045748     -135.6674998116
 Ne        44.3845531855      -27.3131586743     -270.3365655230
 Ne      -388.4080096156      142.3799825642     -544.9485788815
 Ne       168.7565428559      140.3538846141      -95.2057404552
 Ne       130.3604622622     -234.3231484301     -130.0955142816
 Ne       131.5560195244      515.9537295123      438.4143767313
 Ne       -84.0867117146       89.5730944414     -133.3535105996
 Ne        99.9998127944     -245.7587175617      -52.2909836148
 Ne       367.4654817952       49.6681996370     -407.4037040945
 Ne      -185.1506812371       50.2824364110      -15.4812939915
 Ne        16.6714003180     -323.7591517954       10.3814722405
 Ne      -148.0450258806      -54.0034059312       45.3166453340
 Ne       -21.2463084637      111.4826584290     -305.9550983872
 Ne        27.5367568687      121.9025920109       48.1217729625
 Ne        90.1417540575     -177.4425634576      -79.3804055614
 Ne      -191.1431038516     -156.7830451723      315.2243278781
 Ne      -530.8722533947      435.6959412041      103.3349488694
 Ne       338.5033895285      207.8081562613       40.7225449605
 Ne      -229.4914332862      -28.9025069017      -50.2644910769
 Ne      -123.4724900573      504.0777564855     -406.1263453686
 Ne       -98.3101563428      -64.1186253996      -35.6722620137
 Ne      -160.7599185182     -226.6338530600     -388.7761418100
 Ne       -62.7227553087     -110.1136533956     -195.0957151017
 Ne      -223.5846893381      166.5884127151     -112.4643808317
 Ne      -132.2946245964      473.7362555313     -237.0587014866
 Ne       163.4944473997      193.2709525039      378.3573777096
 Ne      -153.0077229657      158.1220805707        1.4678699587
 Ne        11.4664019521      189.4127712177      576.0601444958
 Ne        25.5780012393       34.1022926562     -498.3176050889
 Ne       131.5963240067      -41.2801854048     -161.2738724185
 Ne       -21.5816592219      202.7224190587      -11.4922872276
 Ne       -55.8669203156      171.4714404040     -177.8194838877
 Ne        58.6656496453       72.8156909340       96.8647543232
 Ne       147.9358620896      116.9083199574      550.9703333398
 Ne       364.6994462463      248.5728649357     -166.8432228664
 Ne       198.8498496776        9.1473154000       93.8620916631
 Ne      -232.6474510313      215.4047765953     -348.9055860697
 Ne       -33.6581294225      -24.7181985246       30.6258086332
 Ne      -213.2901693185     -261.0401961294      158.7708100514
 Ne       493.6742907191      -44.4054642808      206.6519529300
 Ne      -177.2356691862      229.2811153716     -355.2742205107
 Ne        59.1549253580      -45.5566299132     -455.2001090816
 Ne        27.4669567552      225.9190763919       29.9042210434
 Ne       -73.5427557708      -51.3521507094      203.7075520154
 Ne      -185.9252759647      253.2362694220      211.1948334118
 Ne       201.1418587963       99.4018763776      -36.0943264536
 Ne       217.7720013210      130.5025831917     -164.0292809380
 Ne      -183.9770447625     -172.2392835828     -327.1236621318
 Ne       -20.5067263447      145.0592762820      156.2798931471
 Ne      -336.6685254629      105.5885691873     -188.6469855765
 Ne       279.8007333002      100.2096464845      -78.2037387631
 Ne      -437.2255551884       -8.6494472156      -67.8369595198
 Ne        23.4304066963      193.0998526782     -231.8901262521
 Ne       649.1099599031       89.5650073344       17.0154302126
 Ne       257.6208558621      112.9273299089      -22.4592428912
 Ne       -50.8696637218     -191.5357693758      225.6295414936
 Ne        55.5436779374     -690.5748046904     -198.8985794692
 Ne      -175.1034738354      570.5862739042     -129.7694554144
 Ne      -503.0240182917      -85.1023403884     -311.3689512450
 Ne       -30.9436170590      180.5687269992     -178.7792211643
 Ne      -192.9367710760      -52.6411189824      278.4262147592
 Ne      -114.0677754527      287.0223335196       38.9785103168
 Ne       230.2616053535       75.2346920339      -45.4235668220
 Ne      -272.3422845477     -324.0565938626     -140.5395555288
 Ne       101.9549985281      120.7789122817      330.1367114573
 Ne      -290.8169350653     -113.5371573517      -31.5294833505
     248
 i =      200, time =       20.000, E =         0.3325311875
  C        -0.3450620390        0.5330332389        2.6081611560
  C        -1.0113081784        0.9022027709        1.4065932599
  C        -0.4795288449        0.4656836965        0.1193819254
  C        -0.8922510236        0.9914172363       -1.1576521472
  C         0.5934431040       -0.4511810861        2.5320872027
  H        -0.5659393333        0.9272229333        3.5894675583
  H        -1.8085041155        1.6465376195        1.3111930959
  H        -1.5397247402        1.8458706190       -1.1471644069
  H         1.1362654195       -0.8417960285        3.4465411703
  C         0.6063855090       -0.5157016799        0.1248988617
  C        -0.4213191394        0.3700289063       -2.3764274133
  C         1.1041514569       -1.0117050370        1.2809510500
  C         1.0925117960       -1.0703242018       -1.0896392980
  C         0.6517317293       -0.5205227995       -2.3918057473
  H        -0.9011015127        0.7301442962       -3.3083942762
  H         1.8311418493       -1.8189990457        1.1436650415
  H         1.9220902429       -1.6952224865       -1.1236990522
  H         1.0160496311       -0.8319544732       -3.3174512687
  C         5.0221810412       -0.8629368049        2.3486507535
  C         5.0505515153       -1.5390749472        1.1451485453
  C         5.0880200659       -0.7750064872       -0.0379541463
  C         4.8905502849       -1.3939009548       -1.2996754130
  C         5.1279332068        0.5578689127        2.4362310338
  H         4.8668324769       -1.4208044368        3.3143740964
  H         4.9047762927       -2.5635854497        1.0868749806
  H         4.5848818522       -2.5099899912       -1.3089762691
  H         5.2828205247        1.1778962340        3.3189706594
  C         5.2905462585        0.6016874086        0.0453509880
  C         5.0103901750       -0.5948684969       -2.4728681193
  C         5.4578891887        1.2783201794        1.2968703400
  C         5.4882554007        1.2779267186       -1.1221791618
  C         5.4478102177        0.7064300289       -2.3991645708
  H         4.8024572789       -0.9315664927       -3.5038211144
  H         5.6708087050        2.3852084794        1.3246278187
  H         5.8996476789        2.3194039818       -1.0479158529
  H         5.5632683077        1.3008955305       -3.3824617064
  C        10.2453328353       -0.8180962588        2.4392413810
  C        10.4999659664       -1.4353361769        1.1941473182
  C        10.2368622515       -0.6383852044        0.0493986314
  C        10.6143233045       -1.1710355575       -1.2470424940
  C         9.5377651035        0.4030198521        2.4677108465
  H        10.4098657038       -1.4098755700        3.3503789871
  H        11.0296115670       -2.4200792989        1.1934788088
  H        11.0868557698       -2.1103196754       -1.4028667791
  H         9.0364213239        0.7202470088        3.3795522713
  C         9.6731112164        0.5976618440        0.1089588051
  C        10.2495865595       -0.5278375866       -2.4471067308
  C         9.2484286553        1.1529976062        1.2754765346
  C         9.3928565520        1.2781154371       -1.0690754455
  C         9.6926341258        0.7505237811       -2.3505189975
  H        10.2229899849       -1.1572449052       -3.3412434635
  H         8.6737592756        2.0163661000        1.3205734957
  H         8.9642172958        2.3007220830       -0.9370028550
  H         9.5686705119        1.4079888652       -3.2014454073
  C        15.8122767529       -0.5179170258        3.4697197406
  C        16.3795450190       -0.7874297458        2.2705617205
  C        15.7259765331       -0.4346111317        1.0390751942
  C        16.3015451544       -0.8191706536       -0.1980971887
  C        14.4036799772        0.1283356386        1.1046879571
  C        13.8519148373        0.3951585558        2.4127573606
  C        14.5228284783        0.0564913315        3.5609564462
  H        16.2659846877       -0.9077440589        4.3833796483
  H        17.2607862222       -1.5105683742        2.2476351922
  H        17.2521037748       -1.2659365738       -0.2622959520
  H        12.9194903185        0.9662092930        2.4404855870
  H        14.1596436938        0.2688454316        4.5497744686
  C        15.6213430850       -0.5514444276       -1.4233683772
  C        13.7976704278        0.4753563875       -0.1277821185
  C        14.3982154841        0.2350947723       -1.3718675294
  C        16.1132755582       -0.9265842774       -2.6650704387
  H        12.8172462069        0.8752796353       -0.0915741287
  C        13.7350276996        0.5982051533       -2.5902096074
  C        15.4067450349       -0.5704480079       -3.8317941868
  H        17.0619492578       -1.4451015126       -2.7373163835
  C        14.1923427697        0.1295748372       -3.8259910458
  H        12.6902746540        0.9374515858       -2.5014143015
  H        15.7880319341       -0.8872978201       -4.7827113094
  H        13.6109692546        0.2017981874       -4.7489217631
  C        20.1666351326       -0.5799933613        3.6471674518
  C        20.6618466075       -1.2351132692        2.4820167421
  C        20.3426848366       -0.6605646042        1.2136434700
  C        20.7514855055       -1.3415120427        0.0584663024
  C        19.6019645234        0.5105775267        1.1126583074
  C        19.3069322091        1.2463726041        2.3132205270
  C        19.5201642936        0.6643422356        3.5957699539
  H        20.3477368885       -1.0568277392        4.6606672041
  H        21.1919017395       -2.1975961324        2.6220421778
  H        21.4073260617       -2.1882604793        0.0850983235
  H        18.7775731087        2.2051114019        2.3479348584
  H        19.2333666278        1.2047308777        4.4783971440
  C        20.4218296613       -0.7971499837       -1.2095582164
  C        19.4706685317        1.2093811441       -0.1255337917
  C        19.8581630100        0.4997896265       -1.3029710552
  C        20.7341693568       -1.5192950224       -2.4164398957
  H        18.8959644171        2.0920357465       -0.1576440560
  C        19.5879552255        1.1047687420       -2.5435096522
  C        20.5237285241       -0.8610946169       -3.6872989108
  H        21.1663957159       -2.5396515276       -2.5019796422
  C        19.8230163113        0.3826040765       -3.7115691118
  H        19.0019754770        1.9837490816       -2.4617072858
  H        20.7793422253       -1.3345870388       -4.6060890189
  H        19.6539826778        0.8762559475       -4.6357833118
  C        25.1611506162       -0.6724686952        3.8791031431
  C        25.7037702042       -1.1288533420        2.6390739168
  C        25.2769077174       -0.6967208300        1.3971078585
  C        25.8113930785       -1.2534331926        0.2284993194
  C        24.2791433767        0.2975770991        1.2929548171
  C        23.7643153733        0.7773554973        2.4677454767
  C        24.1669900464        0.2458993220        3.7612772398
  H        25.5564104933       -1.0719731700        4.8119613172
  H        26.4938792118       -1.7944119644        2.7105218336
  H        26.5384513986       -2.1249352262        0.3289263343
  H        22.8840063625        1.4512754720        2.4791195503
  H        23.8009463960        0.6786593463        4.7322857244
  C        25.3617302260       -0.8067034107       -1.0774489260
  C        23.8649927905        0.8495113951        0.0227216996
  C        24.4613055589        0.3520535426       -1.1724281225
  C        25.8512894508       -1.3593447103       -2.2771023754
  H        23.2338375693        1.7207014357       -0.0852438150
  C        24.0439220431        0.8472627946       -2.3856253007
  C        25.4161427167       -0.7303069521       -3.5296801621
  H        26.4470709000       -2.2226458865       -2.1476479910
  C        24.5358212142        0.2886042222       -3.6079247758
  H        23.4649006957        1.7066473394       -2.4184984169
  H        25.8191210751       -1.0730066315       -4.4974310270
  H        24.2205522663        0.6997624792       -4.5757373224
 Ne       -28.9612942901     -317.8328735893     -169.3710335910
 Ne      -299.4611354733      161.8605247853      -57.6182066544
 Ne      -254.2332559673     -216.4006042527      -16.6990311204
 Ne      -372.3812644741     -105.4780902762      -62.4533480757
 Ne       255.8620614366     -247.5077831712      -41.1201308943
 Ne       -92.2733888450        1.7932273660     -272.6724786116
 Ne      -439.6118033498      328.9742547244     -423.9640956489
 Ne       -28.3173178650     -153.8716256956     -159.8048243506
 Ne       174.9098659209       28.6574709877      292.2515272198
 Ne      -162.9447014179      142.6343973903      -45.1760917665
 Ne      -413.1289067608       65.4268498091      281.3816089425
 Ne        -8.5483759018     -229.6421715886     -149.0638055629
 Ne       142.3764623724      -55.2000298095      209.2292739757
 Ne       107.6691934590     -246.1630744096       89.4093309699
 Ne        44.8496233784      190.0813344732      166.5304646120
 Ne      -202.3894898211      -99.6977678673     -260.7680884613
 Ne      -186.9836808834      216.4462800348      189.2730106471
 Ne         7.9388487314        3.0831042619     -148.2950309990
 Ne      -330.4107619901     -122.9116274918        8.7071898772
 Ne       -88.2031270929      -28.3454855358       55.1306476552
 Ne       337.7745140408      255.2787377082      280.6860589975
 Ne       475.1596201386       45.7577802596      273.0871376353
 Ne      -353.5553453191     -203.4553475644     -138.4737598791
 Ne       -96.1015580470       17.9580397327      133.3060864206
 Ne      -388.8761420582      253.0266934761       38.7488047099
 Ne      -207.3662770982     -241.6717685670      -34.8302209149
 Ne       -11.3508019161     -139.0611438390       25.4543428861
 Ne      -220.7299606789      -24.9161406527      208.6655856930
 Ne       272.8058305330     -110.7284518423       91.6940429023
 Ne        46.4534504356      -99.1412095784     -217.1316354832
 Ne      -255.4200862561     -348.6923344821      -92.9575580270
 Ne        61.6802145647     -349.1524335732      128.3039801399
 Ne      -215.1495732647       46.1236339782      319.0724381096
 Ne        49.2579525360     -164.2489906852     -491.0552280581
 Ne       -95.0788008257      -14.6170388104     -139.2250954875
 Ne      -375.4815112461      131.0121391792      544.2944103096
 Ne      -130.9351796349     -188.0582409784        0.6271926188
 Ne       232.8369954776     -272.3388654960     -364.6364399818
 Ne      -248.8677230154      -85.4602435341     -162.0035783798
 Ne       467.2519380575      345.8420173385      117.7487526271
 Ne       -28.1198889665       50.6697476100      198.0356684389
 Ne      -194.2577233078      -76.1712957690      -71.0986191981
 Ne      -118.1045973923     -278.2506990076     -292.7179797884
 Ne       -44.0028003065     -156.6131915484      243.8764196385
 Ne       497.4312622935       23.5372903643      189.7559626692
 Ne      -263.0479319641      224.7367491161      108.2709792027
 Ne      -398.0860601784     -118.7008367237      388.1785924135
 Ne       459.0145397906      438.0628815577     -169.6227849380
 Ne       -68.7181749820     -191.3575225372      431.4149856396
 Ne       603.1113784880      149.1672426549      257.9903888445
 Ne       -85.2827275908     -106.6268421477     -310.0451769297
 Ne       137.5307073849      246.2296003567     -230.1722084614
 Ne       115.2962603691     -214.5133104116      236.7524020318
 Ne      -625.0888266326      408.1233880863     -606.9879178592
 Ne       -30.3525556528       52.6826174216      -82.9733632128
 Ne      -197.6479361748      -18.0055601936     -397.7621152169
 Ne        99.9809984636       87.9185848198     -135.6343708356
 Ne        44.4794924229      -27.3146430228     -270.2683337080
 Ne      -388.3325749584      142.3785784164     -544.9896810060
 Ne       168.6813488181      140.4257852462      -95.2176272539
 Ne       130.4177196991     -234.3732660740     -130.1134336607
 Ne       131.6233059505      515.9902934026      438.4371521286
 Ne       -84.1969633568       89.5118597928     -133.3008764916
 Ne        99.8868106654     -245.7671828768      -52.2962878910
 Ne       367.4253461052       49.5674567173     -407.2670318462
 Ne      -185.1271205899       50.3211378506      -15.5328091764
 Ne        16.7571413200     -323.8382844384       10.3595902963
 Ne      -148.0935437044      -54.0490249819       45.4220529392
 Ne       -21.2580863681      111.5018948552     -305.9830309638
 Ne        27.4699025998      122.0647505688       48.2133997729
 Ne        90.0802336733     -177.4557746246      -79.3096470158
 Ne      -191.1448188938     -156.7842741904      315.2314273845
 Ne      -530.8873992625      435.6605552543      103.3391570248
 Ne       338.4990683310      207.8847659860       40.8337855183
 Ne      -229.4700339679      -28.8692952812      -50.3459104078
 Ne      -123.4646017754      504.1545994997     -406.1755203384
 Ne       -98.3222194865      -64.0918959102      -35.5558120851
 Ne      -160.7035315391     -226.4803231274     -388.9213492486
 Ne       -62.7074916556     -109.9469184192     -195.0514697461
 Ne      -223.5815286493      166.3675238044     -112.3530742072
 Ne      -132.2672843598      473.7346683752     -236.9427719878
 Ne       163.5579611273      193.2415546827      378.4464964562
 Ne      -153.0003452832      158.1403713322        1.4055863012
 Ne        11.5147914140      189.3644840263      576.0163301656
 Ne        25.4498031632       34.0902843305     -498.3533251659