 # Version information for this restart file 
 # current date 2021-04-29 14:23:58.583
 # current working dir /scratch/sgiannini/REG_TEST_MERGING/37-071a0540f1_code_extension_V3_ADJ/run-fssh-3NAP-3ANT-2FF-CT-Fluct-Couplings
 # Program compiled at                              Thu 29 Apr 10:11:08 BST 2021
 # Program compiled on                                   bulstake.phys.ucl.ac.uk
 # Program compiled for                                             local_hetero
 # Source code revision number                                       git:1080fc1
 &GLOBAL
   BLACS_GRID  SQUARE
   PREFERRED_FFT_LIBRARY  FFTW3
   PRINT_LEVEL  LOW
   PROGRAM_NAME  CP2K
   PROJECT_NAME run
   RUN_TYPE  MD
 &END GLOBAL
 &MOTION
   &MD
     ENSEMBLE  NVE
     STEPS  200
     TIMESTEP     9.9999999999999992E-02
     STEP_START_VAL  200
     TIME_START_VAL     2.0000000000000071E+01
     ECONS_START_VAL     7.3336199399007818E-01
     TEMPERATURE     3.0000000000000000E+02
     &THERMOSTAT
       REGION  GLOBAL
       &NOSE
         LENGTH  3
         YOSHIDA  3
         TIMECON     9.9999999999999989E+02
         MTS  2
       &END NOSE
     &END THERMOSTAT
     &AVERAGES  T
       &RESTART_AVERAGES
         ITIMES_START  1
         AVECPU     5.3849918982014036E-02
         AVEHUGONIOT     0.0000000000000000E+00
         AVETEMP_BARO     0.0000000000000000E+00
         AVEPOT     3.4500445342080471E-01
         AVEKIN     3.8835347927696995E-01
         AVETEMP     3.3099104772083223E+02
         AVEKIN_QM     0.0000000000000000E+00
         AVETEMP_QM     0.0000000000000000E+00
         AVEVOL     1.4576402699474397E+06
         AVECELL_A     1.1338356797313864E+02
         AVECELL_B     1.1338356797313864E+02
         AVECELL_C     1.1338356797313864E+02
         AVEALPHA     9.0000000000000043E+01
         AVEBETA     9.0000000000000043E+01
         AVEGAMMA     9.0000000000000043E+01
         AVE_ECONS    -5.1708007575431226E-03
         AVE_PRESS     0.0000000000000000E+00
         AVE_PXX     0.0000000000000000E+00
       &END RESTART_AVERAGES
     &END AVERAGES
     &PRINT
       &PROGRAM_RUN_INFO  LOW
       &END PROGRAM_RUN_INFO
     &END PRINT
   &END MD
   &CONSTRAINT
     &COLLECTIVE
       COLVAR  1
       INTERMOLECULAR  T
       TARGET     0.0000000000000000E+00
       &RESTRAINT
         K     5.0000000000000001E-03
       &END RESTRAINT
     &END COLLECTIVE
     &COLLECTIVE
       COLVAR  2
       INTERMOLECULAR  T
       TARGET     0.0000000000000000E+00
       &RESTRAINT
         K     5.0000000000000001E-03
       &END RESTRAINT
     &END COLLECTIVE
     &COLLECTIVE
       COLVAR  3
       INTERMOLECULAR  T
       TARGET     0.0000000000000000E+00
       &RESTRAINT
         K     5.0000000000000001E-03
       &END RESTRAINT
     &END COLLECTIVE
     &COLLECTIVE
       COLVAR  4
       INTERMOLECULAR  T
       TARGET     0.0000000000000000E+00
       &RESTRAINT
         K     5.0000000000000001E-03
       &END RESTRAINT
     &END COLLECTIVE
     &COLLECTIVE
       COLVAR  5
       INTERMOLECULAR  T
       TARGET     0.0000000000000000E+00
       &RESTRAINT
         K     5.0000000000000001E-03
       &END RESTRAINT
     &END COLLECTIVE
     &COLLECTIVE
       COLVAR  6
       INTERMOLECULAR  T
       TARGET     0.0000000000000000E+00
       &RESTRAINT
         K     5.0000000000000001E-03
       &END RESTRAINT
     &END COLLECTIVE
     &COLLECTIVE
       COLVAR  7
       INTERMOLECULAR  T
       TARGET     0.0000000000000000E+00
       &RESTRAINT
         K     5.0000000000000001E-03
       &END RESTRAINT
     &END COLLECTIVE
     &COLLECTIVE
       COLVAR  8
       INTERMOLECULAR  T
       TARGET     0.0000000000000000E+00
       &RESTRAINT
         K     5.0000000000000001E-03
       &END RESTRAINT
     &END COLLECTIVE
     &COLLECTIVE
       COLVAR  9
       INTERMOLECULAR  T
       TARGET     0.0000000000000000E+00
       &RESTRAINT
         K     5.0000000000000001E-03
       &END RESTRAINT
     &END COLLECTIVE
     &COLLECTIVE
       COLVAR  10
       INTERMOLECULAR  T
       TARGET     0.0000000000000000E+00
       &RESTRAINT
         K     5.0000000000000001E-03
       &END RESTRAINT
     &END COLLECTIVE
     &COLLECTIVE
       COLVAR  11
       INTERMOLECULAR  T
       TARGET     0.0000000000000000E+00
       &RESTRAINT
         K     5.0000000000000001E-03
       &END RESTRAINT
     &END COLLECTIVE
     &COLLECTIVE
       COLVAR  12
       INTERMOLECULAR  T
       TARGET     0.0000000000000000E+00
       &RESTRAINT
         K     5.0000000000000001E-03
       &END RESTRAINT
     &END COLLECTIVE
     &COLVAR_RESTART
           0.0000000000000000E+00
           0.0000000000000000E+00
           0.0000000000000000E+00
           0.0000000000000000E+00
           0.0000000000000000E+00
           0.0000000000000000E+00
           0.0000000000000000E+00
           0.0000000000000000E+00
           0.0000000000000000E+00
           0.0000000000000000E+00
           0.0000000000000000E+00
           0.0000000000000000E+00
     &END COLVAR_RESTART
   &END CONSTRAINT
   &PRINT
     &TRAJECTORY  LOW
       FORMAT  XMOL
       &EACH
         MD  200
       &END EACH
     &END TRAJECTORY
     &MIXED_ENERGIES  OFF
     &END MIXED_ENERGIES
     &RESTART  ON
       &EACH
         MD  200
       &END EACH
     &END RESTART
     &RESTART_HISTORY  OFF
     &END RESTART_HISTORY
   &END PRINT
 &END MOTION
 &MULTIPLE_FORCE_EVALS
   FORCE_EVAL_ORDER  1..3
   MULTIPLE_SUBSYS  T
 &END MULTIPLE_FORCE_EVALS
 &FORCE_EVAL
   METHOD  MIXED
   &MIXED
     MIXING_TYPE  ADIABATIC
     &ADIABATIC
       METHOD_PROPAGATION FSSH
       PRINT_MORE  T
       INITIALIZATION DIABATIC
       REPRESENTATION DIABATIC_BASIS
       ELECTRONIC_PARTIAL_STEP  5
       FIRST_DIABAT  1
       FIRST_ADIABAT  1
       SEED  641704875
       NUMBER_DIABATIC_STATES  9
       NUMBER_ORBITALS  1
       NUCLEAR_TIMESTEP     9.9999999999999992E-02
       CENTER_OF_MASS  T
       METHOD_COUPLING MULTI-PHASE
       &OPTIMIZATION
         DO_SPEEDUP_LJ  F
         DO_SPEEDUP_INTRA  F
         SURF_HOP_CHOICE TRIVIAL_HOP_CORRECT
         RK_PROPAGATION DIABATIC_RK_FAST
         REORDERING_STATES_USING_OVERLAP  T
       &END OPTIMIZATION
       &DECOHERENCE
         DECOHERENCE_CORRECTIONS DAMPING
         DECO_TIME EDC
         SPURIOUS_TRANSFER_CORR  T
         EDC_C     1.0000000000000000E+00
         EDC_E0     0.0000000000000000E+00
         THRESHOLD_TAU_FORCES     9.9999999999999995E-21
         TEMPERATURE_FG_WIDTH     3.0000000000000000E+02
         DECOHERENCE_CRITERION     9.9999999999999995E-07
       &END DECOHERENCE
       &ENERGY_CONSERVATION
         METHOD_RESCALING NACV
         METHOD_ADIABATIC_NACV FAST
         METHOD_REVERSAL ALWAYS
       &END ENERGY_CONSERVATION
       &METHOD_SITE_ENERGIES
         MULTI_STATES  T
         BLOCK_TYPE CT
         &CT_BLOCK
           ADD_COULOMB_POTENTIAL  F
           N_DONOR_ATOMS  18
           N_ACCEPTOR_ATOMS  24
           INDEX_DONOR_MOLS  1..3
           INDEX_ACCEPTOR_MOLS  4..6
         &END CT_BLOCK
       &END METHOD_SITE_ENERGIES
       &AOM
C   6  1  0.00     -0.26533302041943824
C   6  1  0.00      0.39726957419107478
C   6  1  0.00       0.0000000000000000
C   6  1  0.00      0.39630867082504823
C   6  1  0.00     -0.26630436041430156
H   1  1  0.00       0.0000000000000000
H   1  1  0.00       0.0000000000000000
H   1  1  0.00       0.0000000000000000
H   1  1  0.00       0.0000000000000000
C   6  1  0.00       0.0000000000000000
C   6  1  0.00     -0.26630436042192801
C   6  1  0.00      0.39630867031460570
C   6  1  0.00     -0.39726957499032578
C   6  1  0.00      0.26533302040508050
H   1  1  0.00       0.0000000000000000
H   1  1  0.00       0.0000000000000000
H   1  1  0.00       0.0000000000000000
H   1  1  0.00       0.0000000000000000
C   6    1   0.0  -0.27098117992750503
C   6    1   0.0  -0.37104447074342128
C   6    1   0.0    9.0110363005769037E-002
C   6    1   0.0  -0.44722527716137250
C   6    1   0.0   -9.0092448440874440E-002
C   6    1   0.0  -0.36429768533552231
C   6    1   0.0  -0.26910396551209848
H   1    1   0.0    0.0000000000000000
H   1    1   0.0    0.0000000000000000
H   1    1   0.0    0.0000000000000000
H   1    1   0.0    0.0000000000000000
H   1    1   0.0    0.0000000000000000
C   6    1   0.0   -9.0092444658936927E-002
C   6    1   0.0  -0.44722527128205092
C   6    1   0.0   -9.0110359675005330E-002
C   6    1   0.0  -0.36429766958764198
H   1    1   0.0    0.0000000000000000
C   6    1   0.0   0.37104446811379327
C   6    1   0.0   0.26910397268126524
H   1    1   0.0    0.0000000000000000
C   6    1   0.0  -0.27098117813161227
H   1    1   0.0    0.0000000000000000
H   1    1   0.0    0.0000000000000000
H   1    1   0.0    0.0000000000000000
         CUT_OFF_BETWEEN_SITES     1.2000000000000000E+01
         CUT_OFF_CONNECTIVITY     3.5000000000000000E+00
         SCALING_FACTOR_DONOR     9.1869999999999993E-02
         SCALING_FACTOR_ACCEPTOR     9.1869999999999993E-02
         ATOMIC_OVERLAP_CUTOFF     1.0000000000000001E-17
         ANALYTICS  F
         NACV_INCREMENT     1.8872589000000000E-03
         STO_EXPONENTS 6:1.000,7:1.500,16:1.8273
         STO_DR     1.0000000000000001E-01
       &END AOM
       &PRINT
         &COEFFICIENTS  LOW
           &EACH
             MD  1
           &END EACH
         &END COEFFICIENTS
         &POPULATIONS  LOW
           &EACH
             MD  1
           &END EACH
         &END POPULATIONS
         &ADIAB_POPULATIONS  LOW
           &EACH
             MD  1
           &END EACH
         &END ADIAB_POPULATIONS
         &ADIABAT_ENERGIES  SILENT
           &EACH
             MD  1
           &END EACH
         &END ADIABAT_ENERGIES
         &SITE_ENERGIES  SILENT
           &EACH
             MD  1
           &END EACH
         &END SITE_ENERGIES
         &OFF_DIAGONALS  SILENT
           &EACH
             MD  1
           &END EACH
         &END OFF_DIAGONALS
         &PSEUDO_HAMILTONIAN  SILENT
           UNIT hartree
           &EACH
             MD  1
           &END EACH
         &END PSEUDO_HAMILTONIAN
         &SH_INFO  SILENT
           &EACH
             MD  1
           &END EACH
         &END SH_INFO
       &END PRINT
     &END ADIABATIC
     &PRINT
       &PROGRAM_RUN_INFO  OFF
         &EACH
           MD  200
         &END EACH
       &END PROGRAM_RUN_INFO
     &END PRINT
   &END MIXED
   &SUBSYS
     &CELL
       A     6.0000000000000007E+01    0.0000000000000000E+00    0.0000000000000000E+00
       B     0.0000000000000000E+00    6.0000000000000007E+01    0.0000000000000000E+00
       C     0.0000000000000000E+00    0.0000000000000000E+00    6.0000000000000007E+01
       PERIODIC  XYZ
       MULTIPLE_UNIT_CELL  1 1 1
     &END CELL
     &COORD
CT   -3.4506203901403604E-01    5.3303323891323273E-01    2.6081611560349032E+00
CT   -1.0113081783511120E+00    9.0220277091707357E-01    1.4065932599471713E+00
CT   -4.7952884488321251E-01    4.6568369650474911E-01    1.1938192539532920E-01
CT   -8.9225102357986807E-01    9.9141723627158995E-01   -1.1576521471841767E+00
CT    5.9344310403551903E-01   -4.5118108612677232E-01    2.5320872026719314E+00
HA   -5.6593933327141588E-01    9.2722293330617134E-01    3.5894675583261630E+00
HA   -1.8085041154856676E+00    1.6465376194743502E+00    1.3111930959300353E+00
HA   -1.5397247402038987E+00    1.8458706190030547E+00   -1.1471644068608395E+00
HA    1.1362654194976745E+00   -8.4179602846771240E-01    3.4465411703430555E+00
CT    6.0638550895082810E-01   -5.1570167989004789E-01    1.2489886172763932E-01
CT   -4.2131913940594484E-01    3.7002890630999846E-01   -2.3764274132605441E+00
CT    1.1041514569444180E+00   -1.0117050370129332E+00    1.2809510499803036E+00
CT    1.0925117960197543E+00   -1.0703242018045498E+00   -1.0896392979583500E+00
CT    6.5173172928139944E-01   -5.2052279951282709E-01   -2.3918057472769947E+00
HA   -9.0110151269607186E-01    7.3014429616538590E-01   -3.3083942762016250E+00
HA    1.8311418492637297E+00   -1.8189990457141407E+00    1.1436650415457308E+00
HA    1.9220902429361766E+00   -1.6952224865159418E+00   -1.1236990521654056E+00
HA    1.0160496311310030E+00   -8.3195447317660154E-01   -3.3174512687419511E+00
CT    5.0221810411770829E+00   -8.6293680490737301E-01    2.3486507535290060E+00
CT    5.0505515153100307E+00   -1.5390749472216678E+00    1.1451485453367136E+00
CT    5.0880200659456323E+00   -7.7500648723895516E-01   -3.7954146337686623E-02
CT    4.8905502849183335E+00   -1.3939009547709909E+00   -1.2996754130157453E+00
CT    5.1279332068316839E+00    5.5786891265691585E-01    2.4362310337765090E+00
HA    4.8668324769117230E+00   -1.4208044368347523E+00    3.3143740963787498E+00
HA    4.9047762927095224E+00   -2.5635854497236519E+00    1.0868749806421585E+00
HA    4.5848818522494552E+00   -2.5099899912032071E+00   -1.3089762690608882E+00
HA    5.2828205247104556E+00    1.1778962340460704E+00    3.3189706594242958E+00
CT    5.2905462584525020E+00    6.0168740860669556E-01    4.5350987990656969E-02
CT    5.0103901750045647E+00   -5.9486849687711196E-01   -2.4728681193489570E+00
CT    5.4578891886948533E+00    1.2783201794173860E+00    1.2968703399758670E+00
CT    5.4882554006916653E+00    1.2779267185877912E+00   -1.1221791617687029E+00
CT    5.4478102177006207E+00    7.0643002890006323E-01   -2.3991645708368590E+00
HA    4.8024572788693094E+00   -9.3156649267809422E-01   -3.5038211143944489E+00
HA    5.6708087050249771E+00    2.3852084793961388E+00    1.3246278187073912E+00
HA    5.8996476788505099E+00    2.3194039818158689E+00   -1.0479158529054913E+00
HA    5.5632683077446679E+00    1.3008955305456469E+00   -3.3824617064451026E+00
CT    1.0245332835341205E+01   -8.1809625877737979E-01    2.4392413810086970E+00
CT    1.0499965966374601E+01   -1.4353361768968094E+00    1.1941473182281959E+00
CT    1.0236862251502878E+01   -6.3838520443015023E-01    4.9398631396194374E-02
CT    1.0614323304502234E+01   -1.1710355575016993E+00   -1.2470424940227969E+00
CT    9.5377651035127666E+00    4.0301985207325725E-01    2.4677108465302502E+00
HA    1.0409865703795893E+01   -1.4098755699804491E+00    3.3503789871360423E+00
HA    1.1029611567023418E+01   -2.4200792989282336E+00    1.1934788088072379E+00
HA    1.1086855769835912E+01   -2.1103196754343232E+00   -1.4028667791344711E+00
HA    9.0364213238610223E+00    7.2024700882526671E-01    3.3795522713227637E+00
CT    9.6731112164196791E+00    5.9766184396942690E-01    1.0895880511947877E-01
CT    1.0249586559469016E+01   -5.2783758660500857E-01   -2.4471067307671999E+00
CT    9.2484286553484374E+00    1.1529976061950100E+00    1.2754765346386157E+00
CT    9.3928565520006284E+00    1.2781154370884282E+00   -1.0690754455079443E+00
CT    9.6926341258434725E+00    7.5052378112544849E-01   -2.3505189974757523E+00
HA    1.0222989984937627E+01   -1.1572449051928122E+00   -3.3412434634673400E+00
HA    8.6737592755769928E+00    2.0163660999998454E+00    1.3205734956728399E+00
HA    8.9642172958131390E+00    2.3007220830186763E+00   -9.3700285498287861E-01
HA    9.5686705118556628E+00    1.4079888651974979E+00   -3.2014454072609224E+00
CA    1.5812276752926845E+01   -5.1791702576732501E-01    3.4697197405743707E+00
CA    1.6379545019018583E+01   -7.8742974583639158E-01    2.2705617205199689E+00
CA    1.5725976533059379E+01   -4.3461113172821697E-01    1.0390751942275298E+00
CA    1.6301545154399779E+01   -8.1917065358107843E-01   -1.9809718871303650E-01
CA    1.4403679977200403E+01    1.2833563861818226E-01    1.1046879570777286E+00
CA    1.3851914837276317E+01    3.9515855577457304E-01    2.4127573606174857E+00
CA    1.4522828478331929E+01    5.6491331522601378E-02    3.5609564462304104E+00
H    1.6265984687717047E+01   -9.0774405888305443E-01    4.3833796482781322E+00
H    1.7260786222214801E+01   -1.5105683742223421E+00    2.2476351922273872E+00
H    1.7252103774759359E+01   -1.2659365737587076E+00   -2.6229595202306166E-01
H    1.2919490318497848E+01    9.6620929300937308E-01    2.4404855869930917E+00
H    1.4159643693787066E+01    2.6884543155584967E-01    4.5497744686125339E+00
CA    1.5621343084954734E+01   -5.5144442760136680E-01   -1.4233683771967187E+00
CA    1.3797670427772678E+01    4.7535638749584108E-01   -1.2778211854529570E-01
CA    1.4398215484108457E+01    2.3509477234823273E-01   -1.3718675294234770E+00
CA    1.6113275558230747E+01   -9.2658427744524474E-01   -2.6650704387162594E+00
H    1.2817246206858005E+01    8.7527963534461040E-01   -9.1574128714963496E-02
CA    1.3735027699649782E+01    5.9820515329805013E-01   -2.5902096074361918E+00
CA    1.5406745034945700E+01   -5.7044800786280092E-01   -3.8317941867656273E+00
H    1.7061949257842752E+01   -1.4451015125580069E+00   -2.7373163835108643E+00
CA    1.4192342769656053E+01    1.2957483723777630E-01   -3.8259910457656394E+00
H    1.2690274654007911E+01    9.3745158584720800E-01   -2.5014143014797181E+00
H    1.5788031934100998E+01   -8.8729782013633551E-01   -4.7827113093659896E+00
H    1.3610969254647946E+01    2.0179818739782454E-01   -4.7489217630689389E+00
CA    2.0166635132551793E+01   -5.7999336127650691E-01    3.6471674518308634E+00
CA    2.0661846607535004E+01   -1.2351132691850497E+00    2.4820167421060431E+00
CA    2.0342684836583441E+01   -6.6056460420044749E-01    1.2136434700032261E+00
CA    2.0751485505542522E+01   -1.3415120427390308E+00    5.8466302367518534E-02
CA    1.9601964523388045E+01    5.1057752665046741E-01    1.1126583074344545E+00
CA    1.9306932209112908E+01    1.2463726041438088E+00    2.3132205269693809E+00
CA    1.9520164293573650E+01    6.6434223561066441E-01    3.5957699538599006E+00
H    2.0347736888493763E+01   -1.0568277391849503E+00    4.6606672041258372E+00
H    2.1191901739514414E+01   -2.1975961323642710E+00    2.6220421777610663E+00
H    2.1407326061668282E+01   -2.1882604792504674E+00    8.5098323470896770E-02
H    1.8777573108692561E+01    2.2051114019210161E+00    2.3479348584060169E+00
H    1.9233366627823852E+01    1.2047308776613153E+00    4.4783971440025274E+00
CA    2.0421829661284864E+01   -7.9714998374950052E-01   -1.2095582164446044E+00
CA    1.9470668531654852E+01    1.2093811441318782E+00   -1.2553379170335380E-01
CA    1.9858163010049136E+01    4.9978962645579494E-01   -1.3029710552377431E+00
CA    2.0734169356801956E+01   -1.5192950224372241E+00   -2.4164398957095932E+00
H    1.8895964417109138E+01    2.0920357465118773E+00   -1.5764405596358577E-01
CA    1.9587955225513372E+01    1.1047687420367849E+00   -2.5435096521921228E+00
CA    2.0523728524136732E+01   -8.6109461687552147E-01   -3.6872989107684746E+00
H    2.1166395715857529E+01   -2.5396515276166749E+00   -2.5019796421659337E+00
CA    1.9823016311306787E+01    3.8260407651980782E-01   -3.7115691118031182E+00
H    1.9001975476974991E+01    1.9837490815744592E+00   -2.4617072858341245E+00
H    2.0779342225308106E+01   -1.3345870387583552E+00   -4.6060890188694206E+00
H    1.9653982677795227E+01    8.7625594750815894E-01   -4.6357833118335705E+00
CA    2.5161150616165827E+01   -6.7246869520826580E-01    3.8791031431379741E+00
CA    2.5703770204220351E+01   -1.1288533419650253E+00    2.6390739167682788E+00
CA    2.5276907717382720E+01   -6.9672082995500917E-01    1.3971078585206129E+00
CA    2.5811393078480656E+01   -1.2534331925703273E+00    2.2849931944303667E-01
CA    2.4279143376708358E+01    2.9757709905894397E-01    1.2929548171399388E+00
CA    2.3764315373318915E+01    7.7735549732598197E-01    2.4677454767015843E+00
CA    2.4166990046368447E+01    2.4589932197998060E-01    3.7612772398096177E+00
H    2.5556410493296198E+01   -1.0719731699997430E+00    4.8119613172040596E+00
H    2.6493879211833413E+01   -1.7944119643957028E+00    2.7105218336439134E+00
H    2.6538451398583991E+01   -2.1249352262001757E+00    3.2892633430728219E-01
H    2.2884006362499004E+01    1.4512754720080405E+00    2.4791195503279670E+00
H    2.3800946396041724E+01    6.7865934628873092E-01    4.7322857243563101E+00
CA    2.5361730226045847E+01   -8.0670341067983053E-01   -1.0774489259700715E+00
CA    2.3864992790485847E+01    8.4951139510131368E-01    2.2721699560588705E-02
CA    2.4461305558935827E+01    3.5205354263719052E-01   -1.1724281225462854E+00
CA    2.5851289450788158E+01   -1.3593447102819549E+00   -2.2771023753946906E+00
H    2.3233837569271614E+01    1.7207014357372878E+00   -8.5243815030576833E-02
CA    2.4043922043076794E+01    8.4726279455039333E-01   -2.3856253006721455E+00
CA    2.5416142716730988E+01   -7.3030695210722041E-01   -3.5296801621012079E+00
H    2.6447070900018645E+01   -2.2226458865295577E+00   -2.1476479909636734E+00
CA    2.4535821214159117E+01    2.8860422218525783E-01   -3.6079247758343427E+00
H    2.3464900695743673E+01    1.7066473393839354E+00   -2.4184984168933936E+00
H    2.5819121075116705E+01   -1.0730066315396480E+00   -4.4974310270428983E+00
H    2.4220552266339624E+01    6.9976247923053447E-01   -4.5757373224211229E+00
Ne   -2.8961294290102369E+01   -3.1783287358932125E+02   -1.6937103359095670E+02
Ne   -2.9946113547328667E+02    1.6186052478531224E+02   -5.7618206654376102E+01
Ne   -2.5423325596734171E+02   -2.1640060425274137E+02   -1.6699031120352544E+01
Ne   -3.7238126447412486E+02   -1.0547809027615848E+02   -6.2453348075681554E+01
Ne    2.5586206143659260E+02   -2.4750778317118318E+02   -4.1120130894273970E+01
Ne   -9.2273388845009549E+01    1.7932273659562956E+00   -2.7267247861158648E+02
Ne   -4.3961180334982657E+02    3.2897425472440904E+02   -4.2396409564887205E+02
Ne   -2.8317317865037062E+01   -1.5387162569564958E+02   -1.5980482435058073E+02
Ne    1.7490986592094006E+02    2.8657470987709829E+01    2.9225152721983221E+02
Ne   -1.6294470141786800E+02    1.4263439739027157E+02   -4.5176091766484632E+01
Ne   -4.1312890676081963E+02    6.5426849809091493E+01    2.8138160894247312E+02
Ne   -8.5483759018476917E+00   -2.2964217158864645E+02   -1.4906380556294769E+02
Ne    1.4237646237244351E+02   -5.5200029809484661E+01    2.0922927397569609E+02
Ne    1.0766919345899251E+02   -2.4616307440960983E+02    8.9409330969876535E+01
Ne    4.4849623378399812E+01    1.9008133447315294E+02    1.6653046461195598E+02
Ne   -2.0238948982112831E+02   -9.9697767867268041E+01   -2.6076808846132656E+02
Ne   -1.8698368088340729E+02    2.1644628003477024E+02    1.8927301064710744E+02
Ne    7.9388487313775116E+00    3.0831042618896571E+00   -1.4829503099899409E+02
Ne   -3.3041076199009569E+02   -1.2291162749183677E+02    8.7071898772399354E+00
Ne   -8.8203127092898015E+01   -2.8345485535828676E+01    5.5130647655218006E+01
Ne    3.3777451404076135E+02    2.5527873770816174E+02    2.8068605899750264E+02
Ne    4.7515962013861360E+02    4.5757780259648804E+01    2.7308713763532427E+02
Ne   -3.5355534531908023E+02   -2.0345534756442481E+02   -1.3847375987912221E+02
Ne   -9.6101558047014763E+01    1.7958039732679495E+01    1.3330608642060847E+02
Ne   -3.8887614205822626E+02    2.5302669347614878E+02    3.8748804709926731E+01
Ne   -2.0736627709815252E+02   -2.4167176856695957E+02   -3.4830220914877501E+01
Ne   -1.1350801916118119E+01   -1.3906114383902403E+02    2.5454342886139781E+01
Ne   -2.2072996067892103E+02   -2.4916140652703721E+01    2.0866558569301941E+02
Ne    2.7280583053297056E+02   -1.1072845184230935E+02    9.1694042902251169E+01
Ne    4.6453450435565507E+01   -9.9141209578418582E+01   -2.1713163548319008E+02
Ne   -2.5542008625613167E+02   -3.4869233448214345E+02   -9.2957558026970105E+01
Ne    6.1680214564673683E+01   -3.4915243357321731E+02    1.2830398013991251E+02
Ne   -2.1514957326467629E+02    4.6123633978210833E+01    3.1907243810958272E+02
Ne    4.9257952535997397E+01   -1.6424899068515504E+02   -4.9105522805811393E+02
Ne   -9.5078800825731221E+01   -1.4617038810376517E+01   -1.3922509548751003E+02
Ne   -3.7548151124610666E+02    1.3101213917916547E+02    5.4429441030960038E+02
Ne   -1.3093517963494594E+02   -1.8805824097842651E+02    6.2719261877622723E-01
Ne    2.3283699547763851E+02   -2.7233886549599089E+02   -3.6463643998178907E+02
Ne   -2.4886772301538070E+02   -8.5460243534101039E+01   -1.6200357837983105E+02
Ne    4.6725193805752480E+02    3.4584201733846487E+02    1.1774875262712644E+02
Ne   -2.8119888966471905E+01    5.0669747610039494E+01    1.9803566843892628E+02
Ne   -1.9425772330784457E+02   -7.6171295768963873E+01   -7.1098619198076179E+01
Ne   -1.1810459739233872E+02   -2.7825069900755346E+02   -2.9271797978837685E+02
Ne   -4.4002800306514040E+01   -1.5661319154835041E+02    2.4387641963849160E+02
Ne    4.9743126229353925E+02    2.3537290364263345E+01    1.8975596266921124E+02
Ne   -2.6304793196412282E+02    2.2473674911609859E+02    1.0827097920274329E+02
Ne   -3.9808606017837701E+02   -1.1870083672370919E+02    3.8817859241351994E+02
Ne    4.5901453979056032E+02    4.3806288155772694E+02   -1.6962278493801944E+02
Ne   -6.8718174982024422E+01   -1.9135752253722947E+02    4.3141498563955486E+02
Ne    6.0311137848799626E+02    1.4916724265492013E+02    2.5799038884450874E+02
Ne   -8.5282727590796696E+01   -1.0662684214771431E+02   -3.1004517692970410E+02
Ne    1.3753070738491397E+02    2.4622960035674757E+02   -2.3017220846144400E+02
Ne    1.1529626036912883E+02   -2.1451331041156831E+02    2.3675240203180851E+02
Ne   -6.2508882663256236E+02    4.0812338808632819E+02   -6.0698791785918513E+02
Ne   -3.0352555652757928E+01    5.2682617421594848E+01   -8.2973363212835608E+01
Ne   -1.9764793617481408E+02   -1.8005560193605856E+01   -3.9776211521694313E+02
Ne    9.9980998463581287E+01    8.7918584819766735E+01   -1.3563437083562272E+02
Ne    4.4479492422856502E+01   -2.7314643022816153E+01   -2.7026833370798039E+02
Ne   -3.8833257495838438E+02    1.4237857841644703E+02   -5.4498968100600780E+02
Ne    1.6868134881810934E+02    1.4042578524621308E+02   -9.5217627253871754E+01
Ne    1.3041771969905608E+02   -2.3437326607402355E+02   -1.3011343366066401E+02
Ne    1.3162330595051966E+02    5.1599029340257255E+02    4.3843715212864561E+02
Ne   -8.4196963356756001E+01    8.9511859792804060E+01   -1.3330087649161197E+02
Ne    9.9886810665435021E+01   -2.4576718287676067E+02   -5.2296287891015453E+01
Ne    3.6742534610517004E+02    4.9567456717269216E+01   -4.0726703184622909E+02
Ne   -1.8512712058986452E+02    5.0321137850639005E+01   -1.5532809176352995E+01
Ne    1.6757141319970714E+01   -3.2383828443839758E+02    1.0359590296268555E+01
Ne   -1.4809354370442188E+02   -5.4049024981910485E+01    4.5422052939161254E+01
Ne   -2.1258086368110508E+01    1.1150189485515382E+02   -3.0598303096377344E+02
Ne    2.7469902599817846E+01    1.2206475056875527E+02    4.8213399772881537E+01
Ne    9.0080233673337105E+01   -1.7745577462455071E+02   -7.9309647015813184E+01
Ne   -1.9114481889376080E+02   -1.5678427419038249E+02    3.1523142738454351E+02
Ne   -5.3088739926254118E+02    4.3566055525431250E+02    1.0333915702478969E+02
Ne    3.3849906833097879E+02    2.0788476598595065E+02    4.0833785518296551E+01
Ne   -2.2947003396792536E+02   -2.8869295281241637E+01   -5.0345910407767413E+01
Ne   -1.2346460177536362E+02    5.0415459949966635E+02   -4.0617552033838786E+02
Ne   -9.8322219486513475E+01   -6.4091895910171260E+01   -3.5555812085055756E+01
Ne   -1.6070353153907149E+02   -2.2648032312742365E+02   -3.8892134924857589E+02
Ne   -6.2707491655558535E+01   -1.0994691841915652E+02   -1.9505146974614783E+02
Ne   -2.2358152864928354E+02    1.6636752380436550E+02   -1.1235307420720996E+02
Ne   -1.3226728435975633E+02    4.7373466837522579E+02   -2.3694277198776248E+02
Ne    1.6355796112728598E+02    1.9324155468267952E+02    3.7844649645615425E+02
Ne   -1.5300034528322399E+02    1.5814037133222880E+02    1.4055863011866525E+00
Ne    1.1514791413971279E+01    1.8936448402634198E+02    5.7601633016560743E+02
Ne    2.5449803163249111E+01    3.4090284330514542E+01   -4.9835332516591188E+02
Ne    1.3154527917026516E+02   -4.1150377038204752E+01   -1.6127715746202782E+02
Ne   -2.1672335196145745E+01    2.0270760155326096E+02   -1.1646406809577476E+01
Ne   -5.5820736007643397E+01    1.7136440095818494E+02   -1.7796853028297994E+02
Ne    5.8692165927070072E+01    7.2780127081023835E+01    9.6980845891745687E+01
Ne    1.4791052117066675E+02    1.1681423195831333E+02    5.5112070800738172E+02
Ne    3.6463757220376232E+02    2.4860121629231281E+02   -1.6680808786071759E+02
Ne    1.9880351766373488E+02    9.1718752795487415E+00    9.3833935003093401E+01
Ne   -2.3265539276682478E+02    2.1544109859741769E+02   -3.4894535984637616E+02
Ne   -3.3782620198582322E+01   -2.4710195231301256E+01    3.0694440883645370E+01
Ne   -2.1328625741254638E+02   -2.6110524740723429E+02    1.5886384784896234E+02
Ne    4.9373139609513748E+02   -4.4356921642299568E+01    2.0670663588853100E+02
Ne   -1.7728146459429539E+02    2.2934658998570558E+02   -3.5524404752259488E+02
Ne    5.9160172973011655E+01   -4.5530348521856695E+01   -4.5537021362762596E+02
Ne    2.7409918700022327E+01    2.2598166549486348E+02    2.9850203008490933E+01
Ne   -7.3571452056956034E+01   -5.1282147781916628E+01    2.0369673818355128E+02
Ne   -1.8596612513551150E+02    2.5320966365673087E+02    2.1111032133750294E+02
Ne    2.0116499911029013E+02    9.9368794356050927E+01   -3.6124510853310554E+01
Ne    2.1767520785663217E+02    1.3047586714815472E+02   -1.6411437113370124E+02
Ne   -1.8392425431656989E+02   -1.7224168733253424E+02   -3.2717678959775554E+02
Ne   -2.0547584158649119E+01    1.4507050629278848E+02    1.5634226737802885E+02
Ne   -3.3672258256997577E+02    1.0572757465205036E+02   -1.8867017256607042E+02
Ne    2.7984245222238656E+02    1.0025352163894078E+02   -7.8240493376290857E+01
Ne   -4.3727901610145256E+02   -8.7564858899374798E+00   -6.7852903822603537E+01
Ne    2.3340203685212469E+01    1.9314645108864286E+02   -2.3189613311348913E+02
Ne    6.4919246846696592E+02    8.9605881672455709E+01    1.7098039098256574E+01
Ne    2.5773696700661640E+02    1.1291525035287020E+02   -2.2495901596007457E+01