 DBCSR| Multiplication driver                                               XSMM
 DBCSR| Multrec recursion limit                                              512
 DBCSR| Multiplication stack size                                           1000
 DBCSR| Maximum elements for images                                    UNLIMITED
 DBCSR| Randmat seed                                                    12341313
 DBCSR| Multiplication size stacks                                             3


  **** **** ******  **  PROGRAM STARTED AT               2021-04-29 14:23:29.579
 ***** ** ***  *** **   PROGRAM STARTED ON               bulstake.phys.ucl.ac.uk
 **    ****   ******    PROGRAM STARTED BY                             sgiannini
 ***** **    ** ** **   PROGRAM PROCESS ID                                 12963
  **** **  *******  **  PROGRAM STARTED IN /scratch/sgiannini/REG_TEST_MERGING/3
                                           7-071a0540f1_code_extension_V3_ADJ/ru
                                           n-fssh-3NAP-3ANT-2FF-CT-Fluct-Couplin
                                           gs

 CP2K| version string:                    CP2K version 4.0 (Development Version)
 CP2K| source code revision number:                                  git:1080fc1
 CP2K| cp2kflags: libint fftw3 libxc quip smm_dnn smm libxsmm libderiv_max_am1=5
 CP2K|             libint_max_am=6
 CP2K| is freely available from                            https://www.cp2k.org/
 CP2K| Program compiled at                          Thu 29 Apr 10:11:08 BST 2021
 CP2K| Program compiled on                               bulstake.phys.ucl.ac.uk
 CP2K| Program compiled for                                         local_hetero
 CP2K| Data directory path           /scratch/sgiannini/flavoured-cptk/cp2k/data
 CP2K| Input file name                                                   run.inp

 GLOBAL| Force Environment number                                              1
 GLOBAL| Basis set file name                                           POTENTIAL
 GLOBAL| MM Potential file name                                     MM_POTENTIAL
 GLOBAL| Coordinate file name                                       pos-init.xyz
 GLOBAL| Force Environment number                                              2
 GLOBAL| Basis set file name                                           POTENTIAL
 GLOBAL| MM Potential file name                                     MM_POTENTIAL
 GLOBAL| Coordinate file name                                       pos-init.xyz
 GLOBAL| Force Environment number                                              3
 GLOBAL| Basis set file name                                           POTENTIAL
 GLOBAL| MM Potential file name                                     MM_POTENTIAL
 GLOBAL| Coordinate file name                                       pos-init.xyz
 GLOBAL| Method name                                                        CP2K
 GLOBAL| Project name                                                        run
 GLOBAL| Preferred FFT library                                             FFTW3
 GLOBAL| Preferred diagonalization lib.                                       SL
 GLOBAL| Run type                                                             MD
 GLOBAL| All-to-all communication in single precision                          F
 GLOBAL| FFTs using library dependent lengths                                  F
 GLOBAL| Global print level                                                  LOW
 GLOBAL| Total number of message passing processes                             1
 GLOBAL| Number of threads for this process                                    1
 GLOBAL| This output is from process                                           0
 GLOBAL| CPU model name :  Intel(R) Xeon(R) CPU E5-2687W v4 @ 3.00GHz

 MEMORY| system memory details [Kb]
 MEMORY|                        rank 0           min           max       average
 MEMORY| MemTotal             65894336      65894336      65894336      65894336
 MEMORY| MemFree               6875700       6875700       6875700       6875700
 MEMORY| Buffers                  8744          8744          8744          8744
 MEMORY| Cached               40779116      40779116      40779116      40779116
 MEMORY| Slab                  3236700       3236700       3236700       3236700
 MEMORY| SReclaimable          2479316       2479316       2479316       2479316
 MEMORY| MemLikelyFree        50142876      50142876      50142876      50142876

 TOTAL NUMBER OF FORCE EVALS           3
 NOTE:n_subforce_eval           2
          ----------------------------------------------------------------------
 COLVARS| COLVAR INPUT INDEX:        1
 COLVARS| BOND          >>> POINTS:                                    1       2
 COLVARS| INFORMATION ON DEFINED GEOMETRICAL POINTS
 COLVARS|  POINT Nr.     1 OF TYPE: GEO_CENTER
 COLVARS|   ATOMS BUILDING THE GEOMETRICAL POINT
 COLVARS|   ATOM:         1
 COLVARS|   ATOM:         2
 COLVARS|   ATOM:         3
 COLVARS|   ATOM:        10
 COLVARS|   ATOM:        12
 COLVARS|   ATOM:         5
 COLVARS|  POINT Nr.     2 OF TYPE: FIX_POINT
 COLVARS|   XYZ POSITION OF FIXED POINT:       -0.000913   -0.004945    2.313156
          ----------------------------------------------------------------------
          ----------------------------------------------------------------------
 COLVARS| COLVAR INPUT INDEX:        2
 COLVARS| BOND          >>> POINTS:                                    1       2
 COLVARS| INFORMATION ON DEFINED GEOMETRICAL POINTS
 COLVARS|  POINT Nr.     1 OF TYPE: GEO_CENTER
 COLVARS|   ATOMS BUILDING THE GEOMETRICAL POINT
 COLVARS|   ATOM:         3
 COLVARS|   ATOM:         4
 COLVARS|   ATOM:        11
 COLVARS|   ATOM:        14
 COLVARS|   ATOM:        13
 COLVARS|   ATOM:        10
 COLVARS|  POINT Nr.     2 OF TYPE: FIX_POINT
 COLVARS|   XYZ POSITION OF FIXED POINT:        0.000913    0.004945   -2.313156
          ----------------------------------------------------------------------
          ----------------------------------------------------------------------
 COLVARS| COLVAR INPUT INDEX:        3
 COLVARS| BOND          >>> POINTS:                                    1       2
 COLVARS| INFORMATION ON DEFINED GEOMETRICAL POINTS
 COLVARS|  POINT Nr.     1 OF TYPE: GEO_CENTER
 COLVARS|   ATOMS BUILDING THE GEOMETRICAL POINT
 COLVARS|   ATOM:        19
 COLVARS|   ATOM:        20
 COLVARS|   ATOM:        21
 COLVARS|   ATOM:        28
 COLVARS|   ATOM:        30
 COLVARS|   ATOM:        23
 COLVARS|  POINT Nr.     2 OF TYPE: FIX_POINT
 COLVARS|   XYZ POSITION OF FIXED POINT:        9.447737   -0.004945    2.313156
          ----------------------------------------------------------------------
          ----------------------------------------------------------------------
 COLVARS| COLVAR INPUT INDEX:        4
 COLVARS| BOND          >>> POINTS:                                    1       2
 COLVARS| INFORMATION ON DEFINED GEOMETRICAL POINTS
 COLVARS|  POINT Nr.     1 OF TYPE: GEO_CENTER
 COLVARS|   ATOMS BUILDING THE GEOMETRICAL POINT
 COLVARS|   ATOM:        21
 COLVARS|   ATOM:        22
 COLVARS|   ATOM:        29
 COLVARS|   ATOM:        32
 COLVARS|   ATOM:        31
 COLVARS|   ATOM:        28
 COLVARS|  POINT Nr.     2 OF TYPE: FIX_POINT
 COLVARS|   XYZ POSITION OF FIXED POINT:        9.449563    0.004945   -2.313156
          ----------------------------------------------------------------------
          ----------------------------------------------------------------------
 COLVARS| COLVAR INPUT INDEX:        5
 COLVARS| BOND          >>> POINTS:                                    1       2
 COLVARS| INFORMATION ON DEFINED GEOMETRICAL POINTS
 COLVARS|  POINT Nr.     1 OF TYPE: GEO_CENTER
 COLVARS|   ATOMS BUILDING THE GEOMETRICAL POINT
 COLVARS|   ATOM:        37
 COLVARS|   ATOM:        38
 COLVARS|   ATOM:        39
 COLVARS|   ATOM:        46
 COLVARS|   ATOM:        48
 COLVARS|   ATOM:        41
 COLVARS|  POINT Nr.     2 OF TYPE: FIX_POINT
 COLVARS|   XYZ POSITION OF FIXED POINT:       18.896387   -0.004945    2.313156
          ----------------------------------------------------------------------
          ----------------------------------------------------------------------
 COLVARS| COLVAR INPUT INDEX:        6
 COLVARS| BOND          >>> POINTS:                                    1       2
 COLVARS| INFORMATION ON DEFINED GEOMETRICAL POINTS
 COLVARS|  POINT Nr.     1 OF TYPE: GEO_CENTER
 COLVARS|   ATOMS BUILDING THE GEOMETRICAL POINT
 COLVARS|   ATOM:        39
 COLVARS|   ATOM:        40
 COLVARS|   ATOM:        47
 COLVARS|   ATOM:        50
 COLVARS|   ATOM:        49
 COLVARS|   ATOM:        46
 COLVARS|  POINT Nr.     2 OF TYPE: FIX_POINT
 COLVARS|   XYZ POSITION OF FIXED POINT:       18.898213    0.004945   -2.313156
          ----------------------------------------------------------------------
          ----------------------------------------------------------------------
 COLVARS| COLVAR INPUT INDEX:        7
 COLVARS| BOND          >>> POINTS:                                    1       2
 COLVARS| INFORMATION ON DEFINED GEOMETRICAL POINTS
 COLVARS|  POINT Nr.     1 OF TYPE: GEO_CENTER
 COLVARS|   ATOMS BUILDING THE GEOMETRICAL POINT
 COLVARS|   ATOM:        55
 COLVARS|   ATOM:        56
 COLVARS|   ATOM:        57
 COLVARS|   ATOM:        59
 COLVARS|   ATOM:        60
 COLVARS|   ATOM:        61
 COLVARS|  POINT Nr.     2 OF TYPE: FIX_POINT
 COLVARS|   XYZ POSITION OF FIXED POINT:       28.351777   -0.009071    4.632012
          ----------------------------------------------------------------------
          ----------------------------------------------------------------------
 COLVARS| COLVAR INPUT INDEX:        8
 COLVARS| BOND          >>> POINTS:                                    1       2
 COLVARS| INFORMATION ON DEFINED GEOMETRICAL POINTS
 COLVARS|  POINT Nr.     1 OF TYPE: GEO_CENTER
 COLVARS|   ATOMS BUILDING THE GEOMETRICAL POINT
 COLVARS|   ATOM:        67
 COLVARS|   ATOM:        70
 COLVARS|   ATOM:        73
 COLVARS|   ATOM:        75
 COLVARS|   ATOM:        72
 COLVARS|   ATOM:        69
 COLVARS|  POINT Nr.     2 OF TYPE: FIX_POINT
 COLVARS|   XYZ POSITION OF FIXED POINT:       28.340123    0.009071   -4.632012
          ----------------------------------------------------------------------
          ----------------------------------------------------------------------
 COLVARS| COLVAR INPUT INDEX:        9
 COLVARS| BOND          >>> POINTS:                                    1       2
 COLVARS| INFORMATION ON DEFINED GEOMETRICAL POINTS
 COLVARS|  POINT Nr.     1 OF TYPE: GEO_CENTER
 COLVARS|   ATOMS BUILDING THE GEOMETRICAL POINT
 COLVARS|   ATOM:        79
 COLVARS|   ATOM:        80
 COLVARS|   ATOM:        81
 COLVARS|   ATOM:        83
 COLVARS|   ATOM:        84
 COLVARS|   ATOM:        85
 COLVARS|  POINT Nr.     2 OF TYPE: FIX_POINT
 COLVARS|   XYZ POSITION OF FIXED POINT:       37.800427   -0.009071    4.632012
          ----------------------------------------------------------------------
          ----------------------------------------------------------------------
 COLVARS| COLVAR INPUT INDEX:       10
 COLVARS| BOND          >>> POINTS:                                    1       2
 COLVARS| INFORMATION ON DEFINED GEOMETRICAL POINTS
 COLVARS|  POINT Nr.     1 OF TYPE: GEO_CENTER
 COLVARS|   ATOMS BUILDING THE GEOMETRICAL POINT
 COLVARS|   ATOM:        91
 COLVARS|   ATOM:        94
 COLVARS|   ATOM:        97
 COLVARS|   ATOM:        99
 COLVARS|   ATOM:        96
 COLVARS|   ATOM:        93
 COLVARS|  POINT Nr.     2 OF TYPE: FIX_POINT
 COLVARS|   XYZ POSITION OF FIXED POINT:       37.788773    0.009071   -4.632012
          ----------------------------------------------------------------------
          ----------------------------------------------------------------------
 COLVARS| COLVAR INPUT INDEX:       11
 COLVARS| BOND          >>> POINTS:                                    1       2
 COLVARS| INFORMATION ON DEFINED GEOMETRICAL POINTS
 COLVARS|  POINT Nr.     1 OF TYPE: GEO_CENTER
 COLVARS|   ATOMS BUILDING THE GEOMETRICAL POINT
 COLVARS|   ATOM:       103
 COLVARS|   ATOM:       104
 COLVARS|   ATOM:       105
 COLVARS|   ATOM:       107
 COLVARS|   ATOM:       108
 COLVARS|   ATOM:       109
 COLVARS|  POINT Nr.     2 OF TYPE: FIX_POINT
 COLVARS|   XYZ POSITION OF FIXED POINT:       47.249077   -0.009071    4.632012
          ----------------------------------------------------------------------
          ----------------------------------------------------------------------
 COLVARS| COLVAR INPUT INDEX:       12
 COLVARS| BOND          >>> POINTS:                                    1       2
 COLVARS| INFORMATION ON DEFINED GEOMETRICAL POINTS
 COLVARS|  POINT Nr.     1 OF TYPE: GEO_CENTER
 COLVARS|   ATOMS BUILDING THE GEOMETRICAL POINT
 COLVARS|   ATOM:       115
 COLVARS|   ATOM:       118
 COLVARS|   ATOM:       121
 COLVARS|   ATOM:       123
 COLVARS|   ATOM:       120
 COLVARS|   ATOM:       117
 COLVARS|  POINT Nr.     2 OF TYPE: FIX_POINT
 COLVARS|   XYZ POSITION OF FIXED POINT:       47.237423    0.009071   -4.632012
          ----------------------------------------------------------------------
 RESTRAINT| Active restraint on COLLECTIVE section Nr.     1. K [a.u.]= 0.005000
 RESTRAINT| Active restraint on COLLECTIVE section Nr.     2. K [a.u.]= 0.005000
 RESTRAINT| Active restraint on COLLECTIVE section Nr.     3. K [a.u.]= 0.005000
 RESTRAINT| Active restraint on COLLECTIVE section Nr.     4. K [a.u.]= 0.005000
 RESTRAINT| Active restraint on COLLECTIVE section Nr.     5. K [a.u.]= 0.005000
 RESTRAINT| Active restraint on COLLECTIVE section Nr.     6. K [a.u.]= 0.005000
 RESTRAINT| Active restraint on COLLECTIVE section Nr.     7. K [a.u.]= 0.005000
 RESTRAINT| Active restraint on COLLECTIVE section Nr.     8. K [a.u.]= 0.005000
 RESTRAINT| Active restraint on COLLECTIVE section Nr.     9. K [a.u.]= 0.005000
 RESTRAINT| Active restraint on COLLECTIVE section Nr.    10. K [a.u.]= 0.005000
 RESTRAINT| Active restraint on COLLECTIVE section Nr.    11. K [a.u.]= 0.005000
 RESTRAINT| Active restraint on COLLECTIVE section Nr.    12. K [a.u.]= 0.005000
 DECOMP =  T
 DECOMP =  T

 MD| Molecular Dynamics Protocol 
 MD| Ensemble Type                                                           NVE
 MD| Number of Time Steps                                                    200
 MD| Time Step [fs]                                                         0.10
 MD| Temperature [K]                                                      300.00
 MD| Temperature tolerance [K]                                              0.00
 MD| Constraints activated 
 MD| Tolerance for shake                                              0.1000E-05
 MD| Print MD information every                                        1 step(s)
 MD| File type     Print frequency[steps]                             File names
 MD| Coordinates          200                                      run-pos-1.xyz
 MD| Velocities             1                                      run-vel-1.xyz
 MD| Energies               1                                         run-1.ener
 MD| Dump                 200                                      run-1.restart

 ROT| Rotational Analysis Info 
 ROT| Principal axes and moments of inertia in atomic units:
 ROT|                                1                 2                 3
 ROT| EIGENVALUES            0.147348159E+13   0.181154206E+13   0.188503186E+13
 ROT|      X                     0.725533885      -0.686324004      -0.050595880
 ROT|      Y                     0.081160793       0.012326244       0.996624799
 ROT|      Z                     0.683383865       0.727191464      -0.064645708
 ROT| Numer of Rotovibrational vectors:     6

 Calculation of degrees of freedom
                                                      Number of atoms:       248
                                 Number of Intramolecular constraints:         0
                                 Number of Intermolecular constraints:         0
                                  Invariants(translation + rotations):         3
                                                   Degrees of freedom:       741


 Restraints Information
                                  Number of Intramolecular restraints:         0
                                  Number of Intermolecular restraints:        12

 *** WARNING in motion/thermostat/thermostat_methods.F:280 :: Thermostat ***
 *** for Particles has been defined but the ensemble provided does not   ***
 *** support thermostat for Particles! Ignoring thermostat input.        ***

 ************************** Velocities initialization **************************
 Initial Temperature                                                    333.01 K
 COM velocity:           -0.000023072435      0.000013407134     -0.000010397276
 *******************************************************************************

 FIRST CALL: force_env_calc_energy_force
 RESTART_KEY F
 ACTIVE STATE           3
 FOBSH| ACTIVE STATE =            3

 ENERGY| Total FORCE_EVAL ( MIXED ) energy (a.u.):             0.340106657658186

 STEP NUMBER                  =            0
 CPU TIME [s]                 =    0.0000000000000000        0.0000000000000000     

 MD_ENERGIES| Initialization proceeding


 ******************************** GO CP2K GO! **********************************
 INITIAL POTENTIAL ENERGY[hartree]     =                      0.340106657658E+00
 INITIAL KINETIC ENERGY[hartree]       =                      0.393255336332E+00
 INITIAL TEMPERATURE[K]                =                                 335.169
 INITIAL VOLUME[bohr^3]                =                      0.145764026995E+07
 INITIAL CELL LNTHS[bohr]   =      0.1133836E+03   0.1133836E+03   0.1133836E+03
 INITIAL CELL ANGLS[deg]    =      0.9000000E+02   0.9000000E+02   0.9000000E+02
 ******************************** GO CP2K GO! **********************************
 FOBSH| Put former active state           3 in new active state           3
 RANDOM_NUMBER_HOPPING_PROBA  0.23081724695162556     
 FOBSH| ACTIVE STATE =            3

 ENERGY| Total FORCE_EVAL ( MIXED ) energy (a.u.):             0.339917507183816

 FOBSH| CASE1: no hop and no trivial crossing
 ENTER integrator.F
 STEP NUMBER                  =            1
 CPU TIME [s]                 =   0.20942660421133041       0.20942660421133041     

 *******************************************************************************
 ENSEMBLE TYPE                =                                              NVE
 STEP NUMBER                  =                                                1
 TIME [fs]                    =                                         0.100000
 CONSERVED QUANTITY [hartree] =                               0.733361934100E+00

                                              INSTANTANEOUS             AVERAGES
 CPU TIME [s]                 =                        0.21                 0.21
 ENERGY DRIFT PER ATOM [K]    =         -0.762576078909E-04   0.000000000000E+00
 POTENTIAL ENERGY[hartree]    =          0.339917507184E+00   0.339917507184E+00
 KINETIC ENERGY [hartree]     =          0.393444426916E+00   0.393444426916E+00
 TEMPERATURE [K]              =                     335.330              335.330
 *******************************************************************************

 FOBSH| Put former active state           3 in new active state           3
 RANDOM_NUMBER_HOPPING_PROBA  0.66516448495774838     
 FOBSH| ACTIVE STATE =            3

 ENERGY| Total FORCE_EVAL ( MIXED ) energy (a.u.):             0.339681939493724

 FOBSH| CASE1: no hop and no trivial crossing
 ENTER integrator.F
 STEP NUMBER                  =            2
 CPU TIME [s]                 =    3.4003537148237228E-002  0.12171507067978382     

 *******************************************************************************
 ENSEMBLE TYPE                =                                              NVE
 STEP NUMBER                  =                                                2
 TIME [fs]                    =                                         0.200000
 CONSERVED QUANTITY [hartree] =                               0.733361825804E+00

                                              INSTANTANEOUS             AVERAGES
 CPU TIME [s]                 =                        0.03                 0.12
 ENERGY DRIFT PER ATOM [K]    =         -0.214148760793E-03  -0.107074380396E-03
 POTENTIAL ENERGY[hartree]    =          0.339681939494E+00   0.339799723339E+00
 KINETIC ENERGY [hartree]     =          0.393679886310E+00   0.393562156613E+00
 TEMPERATURE [K]              =                     335.531              335.430
 *******************************************************************************

 FOBSH| Put former active state           3 in new active state           3
 RANDOM_NUMBER_HOPPING_PROBA   1.6355657112313595E-002
 FOBSH| ACTIVE STATE =            3

 ENERGY| Total FORCE_EVAL ( MIXED ) energy (a.u.):             0.339401547704937

 FOBSH| CASE1: no hop and no trivial crossing
 ENTER integrator.F
 STEP NUMBER                  =            3
 CPU TIME [s]                 =    3.2004835084080696E-002   9.1811658814549446E-002

 *******************************************************************************
 ENSEMBLE TYPE                =                                              NVE
 STEP NUMBER                  =                                                3
 TIME [fs]                    =                                         0.300000
 CONSERVED QUANTITY [hartree] =                               0.733361671006E+00

                                              INSTANTANEOUS             AVERAGES
 CPU TIME [s]                 =                        0.03                 0.09
 ENERGY DRIFT PER ATOM [K]    =         -0.411250566409E-03  -0.208466442401E-03
 POTENTIAL ENERGY[hartree]    =          0.339401547705E+00   0.339666998127E+00
 KINETIC ENERGY [hartree]     =          0.393960123301E+00   0.393694812176E+00
 TEMPERATURE [K]              =                     335.770              335.543
 *******************************************************************************

 FOBSH| Put former active state           3 in new active state           3
 RANDOM_NUMBER_HOPPING_PROBA  0.55639933439229194     
 FOBSH| ACTIVE STATE =            3

 ENERGY| Total FORCE_EVAL ( MIXED ) energy (a.u.):             0.339078681142885

 FOBSH| CASE1: no hop and no trivial crossing
 ENTER integrator.F
 STEP NUMBER                  =            4
 CPU TIME [s]                 =    3.1390750780701637E-002   7.6706431806087494E-002

 *******************************************************************************
 ENSEMBLE TYPE                =                                              NVE
 STEP NUMBER                  =                                                4
 TIME [fs]                    =                                         0.400000
 CONSERVED QUANTITY [hartree] =                               0.733361473065E+00

                                              INSTANTANEOUS             AVERAGES
 CPU TIME [s]                 =                        0.03                 0.08
 ENERGY DRIFT PER ATOM [K]    =         -0.663286182476E-03  -0.322171377419E-03
 POTENTIAL ENERGY[hartree]    =          0.339078681143E+00   0.339519918881E+00
 KINETIC ENERGY [hartree]     =          0.394282791922E+00   0.393841807112E+00
 TEMPERATURE [K]              =                     336.045              335.669
 *******************************************************************************

 FOBSH| Put former active state           3 in new active state           3
 RANDOM_NUMBER_HOPPING_PROBA  0.47400640360855778     
 FOBSH| ACTIVE STATE =            3

 ENERGY| Total FORCE_EVAL ( MIXED ) energy (a.u.):             0.338716418895449

 FOBSH| *** WARNING: Projection to avoid spurious transfer get lambda =    1.0015623290062472      ***
 FOBSH| CASE1: no hop and no trivial crossing
 ENTER integrator.F
 STEP NUMBER                  =            5
 CPU TIME [s]                 =    3.3839954063296318E-002   6.8133136257529259E-002

 *******************************************************************************
 ENSEMBLE TYPE                =                                              NVE
 STEP NUMBER                  =                                                5
 TIME [fs]                    =                                         0.500000
 CONSERVED QUANTITY [hartree] =                               0.733361232665E+00

                                              INSTANTANEOUS             AVERAGES
 CPU TIME [s]                 =                        0.03                 0.07
 ENERGY DRIFT PER ATOM [K]    =         -0.969384249751E-03  -0.451613951886E-03
 POTENTIAL ENERGY[hartree]    =          0.338716418895E+00   0.339359218884E+00
 KINETIC ENERGY [hartree]     =          0.394644813769E+00   0.394002408444E+00
 TEMPERATURE [K]              =                     336.353              335.806
 *******************************************************************************

 FOBSH| Put former active state           3 in new active state           3
 RANDOM_NUMBER_HOPPING_PROBA  0.58593947693598725     
 FOBSH| ACTIVE STATE =            3

 ENERGY| Total FORCE_EVAL ( MIXED ) energy (a.u.):             0.338318536499789

 FOBSH| *** WARNING: Projection to avoid spurious transfer get lambda =    1.0014135676081044      ***
 FOBSH| CASE1: no hop and no trivial crossing
 ENTER integrator.F
 STEP NUMBER                  =            6
 CPU TIME [s]                 =    3.5061249509453773E-002   6.2621155132850007E-002

 *******************************************************************************
 ENSEMBLE TYPE                =                                              NVE
 STEP NUMBER                  =                                                6
 TIME [fs]                    =                                         0.600000
 CONSERVED QUANTITY [hartree] =                               0.733360949492E+00

                                              INSTANTANEOUS             AVERAGES
 CPU TIME [s]                 =                        0.04                 0.06
 ENERGY DRIFT PER ATOM [K]    =         -0.132994313304E-02  -0.598002148744E-03
 POTENTIAL ENERGY[hartree]    =          0.338318536500E+00   0.339185771820E+00
 KINETIC ENERGY [hartree]     =          0.395042412993E+00   0.394175742535E+00
 TEMPERATURE [K]              =                     336.692              335.953
 *******************************************************************************

 FOBSH| Reordering: for state           2 old index was           3 with overlap -0.99984891072326820      and former  -1.3207162429180509E-004
 FOBSH| Reordering: for state           3 old index was           2 with overlap  0.99981975257939038      and former   1.3175748534012546E-004
 FOBSH| New map:            1           3           2           4           5           6           7           8           9
 FOBSH| Put former active state           3 in new active state           2
 RANDOM_NUMBER_HOPPING_PROBA   5.6770858077411189E-002
 FOBSH| ACTIVE STATE =            2

 ENERGY| Total FORCE_EVAL ( MIXED ) energy (a.u.):             0.337889457301626

 FOBSH| *** WARNING: Projection to avoid spurious transfer get lambda =    1.0012680720763065      ***
 FOBSH| CASE1: no hop and no trivial crossing
 ENTER integrator.F
 STEP NUMBER                  =            7
 CPU TIME [s]                 =    5.4834892973303795E-002   6.1508831967200549E-002

 *******************************************************************************
 ENSEMBLE TYPE                =                                              NVE
 STEP NUMBER                  =                                                7
 TIME [fs]                    =                                         0.700000
 CONSERVED QUANTITY [hartree] =                               0.733360628951E+00

                                              INSTANTANEOUS             AVERAGES
 CPU TIME [s]                 =                        0.05                 0.06
 ENERGY DRIFT PER ATOM [K]    =         -0.173808326479E-02  -0.760870879608E-03
 POTENTIAL ENERGY[hartree]    =          0.337889457302E+00   0.339000584032E+00
 KINETIC ENERGY [hartree]     =          0.395471171650E+00   0.394360803837E+00
 TEMPERATURE [K]              =                     337.057              336.111
 *******************************************************************************

 FOBSH| Put former active state           2 in new active state           2
 RANDOM_NUMBER_HOPPING_PROBA  0.99979986552111166     
 FOBSH| ATTEMPTED_HOP
 FOBSH| ACTIVE STATE =            2

 ENERGY| Total FORCE_EVAL ( MIXED ) energy (a.u.):             0.337434202302976

 FOBSH| Active state before the attempt to hop:           2
 FOBSH| Active state after the attempt to hop:           2
 FOBSH| *** WARNING: Projection to avoid spurious transfer get lambda =    1.0013491343162577      ***
 FOBSH| CASE4: rejected hop and good overlap
 ENTER integrator.F
 STEP NUMBER                  =            8
 CPU TIME [s]                 =    4.9880687147378922E-002   6.0055313864722848E-002

 *******************************************************************************
 ENSEMBLE TYPE                =                                              NVE
 STEP NUMBER                  =                                                8
 TIME [fs]                    =                                         0.800000
 CONSERVED QUANTITY [hartree] =                               0.733360276491E+00

                                              INSTANTANEOUS             AVERAGES
 CPU TIME [s]                 =                        0.05                 0.06
 ENERGY DRIFT PER ATOM [K]    =         -0.218686549945E-02  -0.939120207088E-03
 POTENTIAL ENERGY[hartree]    =          0.337434202303E+00   0.338804786316E+00
 KINETIC ENERGY [hartree]     =          0.395926074188E+00   0.394556462631E+00
 TEMPERATURE [K]              =                     337.445              336.278
 *******************************************************************************

 FOBSH| Put former active state           2 in new active state           2
 RANDOM_NUMBER_HOPPING_PROBA  0.51760332185344105     
 FOBSH| ACTIVE STATE =            2

 ENERGY| Total FORCE_EVAL ( MIXED ) energy (a.u.):             0.336987452976028

 FOBSH| *** WARNING: Projection to avoid spurious transfer get lambda =    1.0012450272316593      ***
 FOBSH| CASE1: no hop and no trivial crossing
 ENTER integrator.F
 STEP NUMBER                  =            9
 CPU TIME [s]                 =    3.3459670841693878E-002   5.7100242417719625E-002

 *******************************************************************************
 ENSEMBLE TYPE                =                                              NVE
 STEP NUMBER                  =                                                9
 TIME [fs]                    =                                         0.900000
 CONSERVED QUANTITY [hartree] =                               0.733359888980E+00

                                              INSTANTANEOUS             AVERAGES
 CPU TIME [s]                 =                        0.03                 0.06
 ENERGY DRIFT PER ATOM [K]    =         -0.268027688439E-02  -0.113258206012E-02
 POTENTIAL ENERGY[hartree]    =          0.336987452976E+00   0.338602860389E+00
 KINETIC ENERGY [hartree]     =          0.396372436004E+00   0.394758237450E+00
 TEMPERATURE [K]              =                     337.826              336.450
 *******************************************************************************

 FOBSH| Put former active state           2 in new active state           2
 RANDOM_NUMBER_HOPPING_PROBA  0.67448496359700172     
 FOBSH| ACTIVE STATE =            2

 ENERGY| Total FORCE_EVAL ( MIXED ) energy (a.u.):             0.336525966555391

 FOBSH| *** WARNING: Projection to avoid spurious transfer get lambda =    1.0011387788918655      ***
 FOBSH| CASE1: no hop and no trivial crossing
 ENTER integrator.F
 STEP NUMBER                  =           10
 CPU TIME [s]                 =    3.2518588006496429E-002   5.4642076976597315E-002

 *******************************************************************************
 ENSEMBLE TYPE                =                                              NVE
 STEP NUMBER                  =                                               10
 TIME [fs]                    =                                         1.000000
 CONSERVED QUANTITY [hartree] =                               0.733359477257E+00

                                              INSTANTANEOUS             AVERAGES
 CPU TIME [s]                 =                        0.03                 0.05
 ENERGY DRIFT PER ATOM [K]    =         -0.320451818379E-02  -0.133977567249E-02
 POTENTIAL ENERGY[hartree]    =          0.336525966555E+00   0.338395171006E+00
 KINETIC ENERGY [hartree]     =          0.396833510702E+00   0.394965764775E+00
 TEMPERATURE [K]              =                     338.219              336.627
 *******************************************************************************

 FOBSH| Put former active state           2 in new active state           2
 RANDOM_NUMBER_HOPPING_PROBA   3.7702295892424312E-002
 FOBSH| ACTIVE STATE =            2

 ENERGY| Total FORCE_EVAL ( MIXED ) energy (a.u.):             0.336056233818146

 FOBSH| *** WARNING: Projection to avoid spurious transfer get lambda =    1.0010308692592300      ***
 FOBSH| CASE1: no hop and no trivial crossing
 ENTER integrator.F
 STEP NUMBER                  =           11
 CPU TIME [s]                 =    3.2704738900065422E-002   5.2647773515094413E-002

 *******************************************************************************
 ENSEMBLE TYPE                =                                              NVE
 STEP NUMBER                  =                                               11
 TIME [fs]                    =                                         1.100000
 CONSERVED QUANTITY [hartree] =                               0.733359045660E+00

                                              INSTANTANEOUS             AVERAGES
 CPU TIME [s]                 =                        0.03                 0.05
 ENERGY DRIFT PER ATOM [K]    =         -0.375406448604E-02  -0.155925647372E-02
 POTENTIAL ENERGY[hartree]    =          0.336056233818E+00   0.338182540352E+00
 KINETIC ENERGY [hartree]     =          0.397302811842E+00   0.395178223600E+00
 TEMPERATURE [K]              =                     338.619              336.808
 *******************************************************************************

 FOBSH| Reordering: for state           6 old index was           7 with overlap  0.99990272581290995      and former  -3.8872095707399488E-005
 FOBSH| Reordering: for state           7 old index was           6 with overlap -0.99978479841535117      and former   3.9457502554468958E-005
 FOBSH| New map:            1           2           3           4           5           7           6           8           9
 FOBSH| Put former active state           2 in new active state           2
 RANDOM_NUMBER_HOPPING_PROBA  0.49461582253689207     
 FOBSH| ACTIVE STATE =            2

 ENERGY| Total FORCE_EVAL ( MIXED ) energy (a.u.):             0.335585062861084

 FOBSH| CASE1: no hop and no trivial crossing
 ENTER integrator.F
 STEP NUMBER                  =           12
 CPU TIME [s]                 =    3.0653756111860275E-002   5.0814938731491566E-002

 *******************************************************************************
 ENSEMBLE TYPE                =                                              NVE
 STEP NUMBER                  =                                               12
 TIME [fs]                    =                                         1.200000
 CONSERVED QUANTITY [hartree] =                               0.733358600256E+00

                                              INSTANTANEOUS             AVERAGES
 CPU TIME [s]                 =                        0.03                 0.05
 ENERGY DRIFT PER ATOM [K]    =         -0.432118962691E-02  -0.178941756982E-02
 POTENTIAL ENERGY[hartree]    =          0.335585062861E+00   0.337966083895E+00
 KINETIC ENERGY [hartree]     =          0.397773537395E+00   0.395394499749E+00
 TEMPERATURE [K]              =                     339.020              336.992
 *******************************************************************************

 FOBSH| Put former active state           2 in new active state           2
 RANDOM_NUMBER_HOPPING_PROBA  0.32311519007383838     
 FOBSH| ACTIVE STATE =            2

 ENERGY| Total FORCE_EVAL ( MIXED ) energy (a.u.):             0.335119489824565

 FOBSH| CASE1: no hop and no trivial crossing
 ENTER integrator.F
 STEP NUMBER                  =           13
 CPU TIME [s]                 =    3.0444167554378510E-002   4.9247956333252102E-002

 *******************************************************************************
 ENSEMBLE TYPE                =                                              NVE
 STEP NUMBER                  =                                               13
 TIME [fs]                    =                                         1.300000
 CONSERVED QUANTITY [hartree] =                               0.733358145882E+00

                                              INSTANTANEOUS             AVERAGES
 CPU TIME [s]                 =                        0.03                 0.05
 ENERGY DRIFT PER ATOM [K]    =         -0.489973739511E-02  -0.202867294100E-02
 POTENTIAL ENERGY[hartree]    =          0.335119489825E+00   0.337747115120E+00
 KINETIC ENERGY [hartree]     =          0.398238656058E+00   0.395613281004E+00
 TEMPERATURE [K]              =                     339.416              337.179
 *******************************************************************************

 FOBSH| Reordering: for state           4 old index was           5 with overlap -0.99995569846354859      and former  -2.3879107374262621E-005
 FOBSH| Reordering: for state           5 old index was           4 with overlap  0.99972273870339379      and former   2.3172969088979143E-005
 FOBSH| New map:            1           2           3           5           4           6           7           8           9
 FOBSH| Put former active state           2 in new active state           2
 RANDOM_NUMBER_HOPPING_PROBA   8.3656818466404978E-002
 FOBSH| ACTIVE STATE =            2

 ENERGY| Total FORCE_EVAL ( MIXED ) energy (a.u.):             0.334666682257891

 FOBSH| CASE1: no hop and no trivial crossing
 ENTER integrator.F
 STEP NUMBER                  =           14
 CPU TIME [s]                 =    6.1690732836723328E-002   5.0136726083500040E-002

 *******************************************************************************
 ENSEMBLE TYPE                =                                              NVE
 STEP NUMBER                  =                                               14
 TIME [fs]                    =                                         1.400000
 CONSERVED QUANTITY [hartree] =                               0.733357689370E+00

                                              INSTANTANEOUS             AVERAGES
 CPU TIME [s]                 =                        0.06                 0.05
 ENERGY DRIFT PER ATOM [K]    =         -0.548100720520E-02  -0.227526824558E-02
 POTENTIAL ENERGY[hartree]    =          0.334666682258E+00   0.337527084201E+00
 KINETIC ENERGY [hartree]     =          0.398691007112E+00   0.395833118583E+00
 TEMPERATURE [K]              =                     339.802              337.366
 *******************************************************************************

 FOBSH| Put former active state           2 in new active state           2
 RANDOM_NUMBER_HOPPING_PROBA  0.52761123649383368     
 FOBSH| ACTIVE STATE =            2

 ENERGY| Total FORCE_EVAL ( MIXED ) energy (a.u.):             0.334233839121802

 FOBSH| CASE1: no hop and no trivial crossing
 ENTER integrator.F
 STEP NUMBER                  =           15
 CPU TIME [s]                 =    6.5895484760403633E-002   5.1187309995293612E-002

 *******************************************************************************
 ENSEMBLE TYPE                =                                              NVE
 STEP NUMBER                  =                                               15
 TIME [fs]                    =                                         1.500000
 CONSERVED QUANTITY [hartree] =                               0.733357237641E+00

                                              INSTANTANEOUS             AVERAGES
 CPU TIME [s]                 =                        0.07                 0.05
 ENERGY DRIFT PER ATOM [K]    =         -0.605618723529E-02  -0.252732951156E-02
 POTENTIAL ENERGY[hartree]    =          0.334233839122E+00   0.337307534529E+00
 KINETIC ENERGY [hartree]     =          0.399123398519E+00   0.396052470579E+00
 TEMPERATURE [K]              =                     340.170              337.553
 *******************************************************************************

 FOBSH| Put former active state           2 in new active state           2
 RANDOM_NUMBER_HOPPING_PROBA  0.43721663298575669     
 FOBSH| ACTIVE STATE =            2

 ENERGY| Total FORCE_EVAL ( MIXED ) energy (a.u.):             0.333828087307944

 FOBSH| CASE1: no hop and no trivial crossing
 ENTER integrator.F
 STEP NUMBER                  =           16
 CPU TIME [s]                 =    5.5267583578824997E-002   5.1442327094264322E-002

 *******************************************************************************
 ENSEMBLE TYPE                =                                              NVE
 STEP NUMBER                  =                                               16
 TIME [fs]                    =                                         1.600000
 CONSERVED QUANTITY [hartree] =                               0.733356796658E+00

                                              INSTANTANEOUS             AVERAGES
 CPU TIME [s]                 =                        0.06                 0.05
 ENERGY DRIFT PER ATOM [K]    =         -0.661768460287E-02  -0.278297670477E-02
 POTENTIAL ENERGY[hartree]    =          0.333828087308E+00   0.337090069078E+00
 KINETIC ENERGY [hartree]     =          0.399528709350E+00   0.396269735502E+00
 TEMPERATURE [K]              =                     340.516              337.738
 *******************************************************************************

 FOBSH| Put former active state           2 in new active state           2
 RANDOM_NUMBER_HOPPING_PROBA  0.65011113421598365     
 FOBSH| ACTIVE STATE =            2

 ENERGY| Total FORCE_EVAL ( MIXED ) energy (a.u.):             0.333456374982132

 FOBSH| CASE1: no hop and no trivial crossing
 ENTER integrator.F
 STEP NUMBER                  =           17
 CPU TIME [s]                 =    3.8029666990041733E-002   5.0653347088133578E-002

 *******************************************************************************
 ENSEMBLE TYPE                =                                              NVE
 STEP NUMBER                  =                                               17
 TIME [fs]                    =                                         1.700000
 CONSERVED QUANTITY [hartree] =                               0.733356373100E+00

                                              INSTANTANEOUS             AVERAGES
 CPU TIME [s]                 =                        0.04                 0.05
 ENERGY DRIFT PER ATOM [K]    =         -0.715699382651E-02  -0.304027182958E-02
 POTENTIAL ENERGY[hartree]    =          0.333456374982E+00   0.336876322366E+00
 KINETIC ENERGY [hartree]     =          0.399899998118E+00   0.396483280362E+00
 TEMPERATURE [K]              =                     340.832              337.920
 *******************************************************************************

 FOBSH| Put former active state           2 in new active state           2
 RANDOM_NUMBER_HOPPING_PROBA  0.51455965289576167     
 FOBSH| ACTIVE STATE =            2

 ENERGY| Total FORCE_EVAL ( MIXED ) energy (a.u.):             0.333125364330245

 FOBSH| CASE1: no hop and no trivial crossing
 ENTER integrator.F
 STEP NUMBER                  =           18
 CPU TIME [s]                 =    3.2826816663146019E-002   4.9662984286745378E-002

 *******************************************************************************
 ENSEMBLE TYPE                =                                              NVE
 STEP NUMBER                  =                                               18
 TIME [fs]                    =                                         1.800000
 CONSERVED QUANTITY [hartree] =                               0.733355976627E+00

                                              INSTANTANEOUS             AVERAGES
 CPU TIME [s]                 =                        0.03                 0.05
 ENERGY DRIFT PER ATOM [K]    =         -0.766181695751E-02  -0.329702433668E-02
 POTENTIAL ENERGY[hartree]    =          0.333125364330E+00   0.336667935809E+00
 KINETIC ENERGY [hartree]     =          0.400230612297E+00   0.396691465469E+00
 TEMPERATURE [K]              =                     341.114              338.097
 *******************************************************************************

 FOBSH| Put former active state           2 in new active state           2
 RANDOM_NUMBER_HOPPING_PROBA  0.36399705515042591     
 FOBSH| ACTIVE STATE =            2

 ENERGY| Total FORCE_EVAL ( MIXED ) energy (a.u.):             0.332841324868445

 FOBSH| CASE1: no hop and no trivial crossing
 ENTER integrator.F
 STEP NUMBER                  =           19
 CPU TIME [s]                 =    6.5158592537045479E-002   5.0478542615708534E-002

 *******************************************************************************
 ENSEMBLE TYPE                =                                              NVE
 STEP NUMBER                  =                                               19
 TIME [fs]                    =                                         1.900000
 CONSERVED QUANTITY [hartree] =                               0.733355612769E+00

                                              INSTANTANEOUS             AVERAGES
 CPU TIME [s]                 =                        0.07                 0.05
 ENERGY DRIFT PER ATOM [K]    =         -0.812511188404E-02  -0.355113420760E-02
 POTENTIAL ENERGY[hartree]    =          0.332841324868E+00   0.336466535233E+00
 KINETIC ENERGY [hartree]     =          0.400514287901E+00   0.396892666650E+00
 TEMPERATURE [K]              =                     341.356              338.269
 *******************************************************************************

 FOBSH| Put former active state           2 in new active state           2
 RANDOM_NUMBER_HOPPING_PROBA  0.59974775946408843     
 FOBSH| ACTIVE STATE =            2

 ENERGY| Total FORCE_EVAL ( MIXED ) energy (a.u.):             0.332610031966116

 FOBSH| CASE1: no hop and no trivial crossing
 ENTER integrator.F
 STEP NUMBER                  =           20
 CPU TIME [s]                 =    6.5275799483060837E-002   5.1218405459076147E-002

 *******************************************************************************
 ENSEMBLE TYPE                =                                              NVE
 STEP NUMBER                  =                                               20
 TIME [fs]                    =                                         2.000000
 CONSERVED QUANTITY [hartree] =                               0.733355284308E+00

                                              INSTANTANEOUS             AVERAGES
 CPU TIME [s]                 =                        0.07                 0.05
 ENERGY DRIFT PER ATOM [K]    =         -0.854333723574E-02  -0.380074435900E-02
 POTENTIAL ENERGY[hartree]    =          0.332610031966E+00   0.336273710070E+00
 KINETIC ENERGY [hartree]     =          0.400745252341E+00   0.397085295934E+00
 TEMPERATURE [K]              =                     341.552              338.433
 *******************************************************************************

 FOBSH| Put former active state           2 in new active state           2
 RANDOM_NUMBER_HOPPING_PROBA  0.62047094759949417     
 FOBSH| ACTIVE STATE =            2

 ENERGY| Total FORCE_EVAL ( MIXED ) energy (a.u.):             0.332436670476062

 FOBSH| CASE1: no hop and no trivial crossing
 ENTER integrator.F
 STEP NUMBER                  =           21
 CPU TIME [s]                 =    6.0299027711153030E-002   5.1650816042508374E-002

 *******************************************************************************
 ENSEMBLE TYPE                =                                              NVE
 STEP NUMBER                  =                                               21
 TIME [fs]                    =                                         2.100000
 CONSERVED QUANTITY [hartree] =                               0.733354999035E+00

                                              INSTANTANEOUS             AVERAGES
 CPU TIME [s]                 =                        0.06                 0.05
 ENERGY DRIFT PER ATOM [K]    =         -0.890657033201E-02  -0.404387892915E-02
 POTENTIAL ENERGY[hartree]    =          0.332436670476E+00   0.336090993899E+00
 KINETIC ENERGY [hartree]     =          0.400918328559E+00   0.397267821298E+00
 TEMPERATURE [K]              =                     341.700              338.589
 *******************************************************************************

 FOBSH| Put former active state           2 in new active state           2
 RANDOM_NUMBER_HOPPING_PROBA  0.60242750875300777     
 FOBSH| ACTIVE STATE =            2

 ENERGY| Total FORCE_EVAL ( MIXED ) energy (a.u.):             0.332325743560386

 FOBSH| CASE1: no hop and no trivial crossing
 ENTER integrator.F
 STEP NUMBER                  =           22
 CPU TIME [s]                 =    7.4131304398179054E-002   5.2672656422311594E-002

 *******************************************************************************
 ENSEMBLE TYPE                =                                              NVE
 STEP NUMBER                  =                                               22
 TIME [fs]                    =                                         2.200000
 CONSERVED QUANTITY [hartree] =                               0.733354762961E+00

                                              INSTANTANEOUS             AVERAGES
 CPU TIME [s]                 =                        0.07                 0.05
 ENERGY DRIFT PER ATOM [K]    =         -0.920715988691E-02  -0.427857351814E-02
 POTENTIAL ENERGY[hartree]    =          0.332325743560E+00   0.335919846156E+00
 KINETIC ENERGY [hartree]     =          0.401029019401E+00   0.397438784848E+00
 TEMPERATURE [K]              =                     341.794              338.734
 *******************************************************************************

 FOBSH| Put former active state           2 in new active state           2
 RANDOM_NUMBER_HOPPING_PROBA  0.39652895798860666     
 FOBSH| ACTIVE STATE =            2

 ENERGY| Total FORCE_EVAL ( MIXED ) energy (a.u.):             0.332280994842355

 FOBSH| CASE1: no hop and no trivial crossing
 ENTER integrator.F
 STEP NUMBER                  =           23
 CPU TIME [s]                 =    7.1063760668039322E-002   5.3472269650386706E-002

 *******************************************************************************
 ENSEMBLE TYPE                =                                              NVE
 STEP NUMBER                  =                                               23
 TIME [fs]                    =                                         2.300000
 CONSERVED QUANTITY [hartree] =                               0.733354579832E+00

                                              INSTANTANEOUS             AVERAGES
 CPU TIME [s]                 =                        0.07                 0.05
 ENERGY DRIFT PER ATOM [K]    =         -0.944033572429E-02  -0.450299796188E-02
 POTENTIAL ENERGY[hartree]    =          0.332280994842E+00   0.335761635229E+00
 KINETIC ENERGY [hartree]     =          0.401073584989E+00   0.397596819636E+00
 TEMPERATURE [K]              =                     341.832              338.869
 *******************************************************************************

 FOBSH| Put former active state           2 in new active state           2
 RANDOM_NUMBER_HOPPING_PROBA   7.7238726212097125E-002
 FOBSH| ACTIVE STATE =            2

 ENERGY| Total FORCE_EVAL ( MIXED ) energy (a.u.):             0.332305347805850

 FOBSH| CASE1: no hop and no trivial crossing
 ENTER integrator.F
 STEP NUMBER                  =           24
 CPU TIME [s]                 =    5.6069405749440193E-002   5.3580483654513934E-002

 *******************************************************************************
 ENSEMBLE TYPE                =                                              NVE
 STEP NUMBER                  =                                               24
 TIME [fs]                    =                                         2.400000
 CONSERVED QUANTITY [hartree] =                               0.733354453834E+00

                                              INSTANTANEOUS             AVERAGES
 CPU TIME [s]                 =                        0.06                 0.05
 ENERGY DRIFT PER ATOM [K]    =         -0.960076690380E-02  -0.471540500113E-02
 POTENTIAL ENERGY[hartree]    =          0.332305347806E+00   0.335617623253E+00
 KINETIC ENERGY [hartree]     =          0.401049106028E+00   0.397740664903E+00
 TEMPERATURE [K]              =                     341.811              338.992
 *******************************************************************************

 FOBSH| Put former active state           2 in new active state           2
 RANDOM_NUMBER_HOPPING_PROBA  0.43331652486925881     
 FOBSH| ACTIVE STATE =            2

 ENERGY| Total FORCE_EVAL ( MIXED ) energy (a.u.):             0.332400856959004

 FOBSH| CASE1: no hop and no trivial crossing
 ENTER integrator.F
 STEP NUMBER                  =           25
 CPU TIME [s]                 =    5.6691639125347137E-002   5.3704929873347268E-002

 *******************************************************************************
 ENSEMBLE TYPE                =                                              NVE
 STEP NUMBER                  =                                               25
 TIME [fs]                    =                                         2.500000
 CONSERVED QUANTITY [hartree] =                               0.733354385785E+00

                                              INSTANTANEOUS             AVERAGES
 CPU TIME [s]                 =                        0.06                 0.05
 ENERGY DRIFT PER ATOM [K]    =         -0.968741216608E-02  -0.491428528773E-02
 POTENTIAL ENERGY[hartree]    =          0.332400856959E+00   0.335488952602E+00
 KINETIC ENERGY [hartree]     =          0.400953528826E+00   0.397869179460E+00
 TEMPERATURE [K]              =                     341.730              339.101
 *******************************************************************************

 FOBSH| Put former active state           2 in new active state           2
 RANDOM_NUMBER_HOPPING_PROBA  0.95743694043412897     
 FOBSH| ACTIVE STATE =            2

 ENERGY| Total FORCE_EVAL ( MIXED ) energy (a.u.):             0.332568678127246

 FOBSH| CASE1: no hop and no trivial crossing
 ENTER integrator.F
 STEP NUMBER                  =           26
 CPU TIME [s]                 =    7.9851035028696060E-002   5.4710549302399145E-002

 *******************************************************************************
 ENSEMBLE TYPE                =                                              NVE
 STEP NUMBER                  =                                               26
 TIME [fs]                    =                                         2.600000
 CONSERVED QUANTITY [hartree] =                               0.733354375182E+00

                                              INSTANTANEOUS             AVERAGES
 CPU TIME [s]                 =                        0.08                 0.05
 ENERGY DRIFT PER ATOM [K]    =         -0.970091278978E-02  -0.509838634550E-02
 POTENTIAL ENERGY[hartree]    =          0.332568678127E+00   0.335376634353E+00
 KINETIC ENERGY [hartree]     =          0.400785697055E+00   0.397981353213E+00
 TEMPERATURE [K]              =                     341.587              339.197
 *******************************************************************************

 FOBSH| Put former active state           2 in new active state           2
 RANDOM_NUMBER_HOPPING_PROBA  0.17644918796174022     
 FOBSH| ACTIVE STATE =            2

 ENERGY| Total FORCE_EVAL ( MIXED ) energy (a.u.):             0.332809056562050

 FOBSH| CASE1: no hop and no trivial crossing
 ENTER integrator.F
 STEP NUMBER                  =           27
 CPU TIME [s]                 =    7.2521297261118889E-002   5.5370206634203577E-002

 *******************************************************************************
 ENSEMBLE TYPE                =                                              NVE
 STEP NUMBER                  =                                               27
 TIME [fs]                    =                                         2.700000
 CONSERVED QUANTITY [hartree] =                               0.733354416729E+00

                                              INSTANTANEOUS             AVERAGES
 CPU TIME [s]                 =                        0.07                 0.06
 ENERGY DRIFT PER ATOM [K]    =         -0.964801211371E-02  -0.526689100358E-02
 POTENTIAL ENERGY[hartree]    =          0.332809056562E+00   0.335281538879E+00
 KINETIC ENERGY [hartree]     =          0.400545360167E+00   0.398076316434E+00
 TEMPERATURE [K]              =                     341.382              339.278
 *******************************************************************************

 FOBSH| Put former active state           2 in new active state           2
 RANDOM_NUMBER_HOPPING_PROBA  0.65004771859616173     
 FOBSH| ACTIVE STATE =            2

 ENERGY| Total FORCE_EVAL ( MIXED ) energy (a.u.):             0.333121365013346

 FOBSH| CASE1: no hop and no trivial crossing
 ENTER integrator.F
 STEP NUMBER                  =           28
 CPU TIME [s]                 =    5.5089924484491348E-002   5.5360196557428139E-002

 *******************************************************************************
 ENSEMBLE TYPE                =                                              NVE
 STEP NUMBER                  =                                               28
 TIME [fs]                    =                                         2.800000
 CONSERVED QUANTITY [hartree] =                               0.733354556312E+00

                                              INSTANTANEOUS             AVERAGES
 CPU TIME [s]                 =                        0.06                 0.06
 ENERGY DRIFT PER ATOM [K]    =         -0.947028324938E-02  -0.541701215522E-02
 POTENTIAL ENERGY[hartree]    =          0.333121365013E+00   0.335204389812E+00
 KINETIC ENERGY [hartree]     =          0.400233191298E+00   0.398153347679E+00
 TEMPERATURE [K]              =                     341.116              339.343
 *******************************************************************************

 FOBSH| Put former active state           2 in new active state           2
 RANDOM_NUMBER_HOPPING_PROBA  0.96150385006163297     
 FOBSH| ACTIVE STATE =            2

 ENERGY| Total FORCE_EVAL ( MIXED ) energy (a.u.):             0.333503950792000

 FOBSH| CASE1: no hop and no trivial crossing
 ENTER integrator.F
 STEP NUMBER                  =           29
 CPU TIME [s]                 =    5.9066154062747955E-002   5.5487988195542619E-002

 *******************************************************************************
 ENSEMBLE TYPE                =                                              NVE
 STEP NUMBER                  =                                               29
 TIME [fs]                    =                                         2.900000
 CONSERVED QUANTITY [hartree] =                               0.733354715819E+00

                                              INSTANTANEOUS             AVERAGES
 CPU TIME [s]                 =                        0.06                 0.06
 ENERGY DRIFT PER ATOM [K]    =         -0.926718454548E-02  -0.554977672040E-02
 POTENTIAL ENERGY[hartree]    =          0.333503950792E+00   0.335145753984E+00
 KINETIC ENERGY [hartree]     =          0.399850765027E+00   0.398211879312E+00
 TEMPERATURE [K]              =                     340.790              339.393
 *******************************************************************************

 FOBSH| Put former active state           2 in new active state           2
 RANDOM_NUMBER_HOPPING_PROBA  0.36395612235713604     
 FOBSH| ACTIVE STATE =            2

 ENERGY| Total FORCE_EVAL ( MIXED ) energy (a.u.):             0.333954413646082

 FOBSH| CASE1: no hop and no trivial crossing
 ENTER integrator.F
 STEP NUMBER                  =           30
 CPU TIME [s]                 =    7.3853183537721634E-002   5.6100161373615252E-002

 *******************************************************************************
 ENSEMBLE TYPE                =                                              NVE
 STEP NUMBER                  =                                               30
 TIME [fs]                    =                                         3.000000
 CONSERVED QUANTITY [hartree] =                               0.733354928684E+00

                                              INSTANTANEOUS             AVERAGES
 CPU TIME [s]                 =                        0.07                 0.06
 ENERGY DRIFT PER ATOM [K]    =         -0.899614750838E-02  -0.566465574666E-02
 POTENTIAL ENERGY[hartree]    =          0.333954413646E+00   0.335106042639E+00
 KINETIC ENERGY [hartree]     =          0.399400515038E+00   0.398251500503E+00
 TEMPERATURE [K]              =                     340.406              339.427
 *******************************************************************************

 FOBSH| Put former active state           2 in new active state           2
 RANDOM_NUMBER_HOPPING_PROBA  0.43010317032725076     
 FOBSH| ACTIVE STATE =            2

 ENERGY| Total FORCE_EVAL ( MIXED ) energy (a.u.):             0.334469468099676

 FOBSH| CASE1: no hop and no trivial crossing
 ENTER integrator.F
 STEP NUMBER                  =           31
 CPU TIME [s]                 =    6.5750293433666229E-002   5.6411455956197537E-002

 *******************************************************************************
 ENSEMBLE TYPE                =                                              NVE
 STEP NUMBER                  =                                               31
 TIME [fs]                    =                                         3.100000
 CONSERVED QUANTITY [hartree] =                               0.733355189750E+00

                                              INSTANTANEOUS             AVERAGES
 CPU TIME [s]                 =                        0.07                 0.06
 ENERGY DRIFT PER ATOM [K]    =         -0.866373581002E-02  -0.576140026484E-02
 POTENTIAL ENERGY[hartree]    =          0.334469468100E+00   0.335085507977E+00
 KINETIC ENERGY [hartree]     =          0.398885721650E+00   0.398271959249E+00
 TEMPERATURE [K]              =                     339.968              339.445
 *******************************************************************************

 FOBSH| Put former active state           2 in new active state           2
 RANDOM_NUMBER_HOPPING_PROBA  0.65181596287938781     
 FOBSH| ACTIVE STATE =            2

 ENERGY| Total FORCE_EVAL ( MIXED ) energy (a.u.):             0.335045033366685

 FOBSH| CASE1: no hop and no trivial crossing
 ENTER integrator.F
 STEP NUMBER                  =           32
 CPU TIME [s]                 =   0.10752720572054386        5.8008823136333362E-002

 *******************************************************************************
 ENSEMBLE TYPE                =                                              NVE
 STEP NUMBER                  =                                               32
 TIME [fs]                    =                                         3.200000
 CONSERVED QUANTITY [hartree] =                               0.733355497419E+00

                                              INSTANTANEOUS             AVERAGES
 CPU TIME [s]                 =                        0.11                 0.06
 ENERGY DRIFT PER ATOM [K]    =         -0.827198580728E-02  -0.583985606304E-02
 POTENTIAL ENERGY[hartree]    =          0.335045033367E+00   0.335084243145E+00
 KINETIC ENERGY [hartree]     =          0.398310464052E+00   0.398273162524E+00
 TEMPERATURE [K]              =                     339.477              339.446
 *******************************************************************************

 FOBSH| Put former active state           2 in new active state           2
 RANDOM_NUMBER_HOPPING_PROBA  0.58558826516437334     
 FOBSH| ACTIVE STATE =            2

 ENERGY| Total FORCE_EVAL ( MIXED ) energy (a.u.):             0.335676287466533

 FOBSH| CASE1: no hop and no trivial crossing
 ENTER integrator.F
 STEP NUMBER                  =           33
 CPU TIME [s]                 =    5.1310105249285698E-002   5.7805831685210710E-002

 *******************************************************************************
 ENSEMBLE TYPE                =                                              NVE
 STEP NUMBER                  =                                               33
 TIME [fs]                    =                                         3.300000
 CONSERVED QUANTITY [hartree] =                               0.733355847339E+00

                                              INSTANTANEOUS             AVERAGES
 CPU TIME [s]                 =                        0.05                 0.06
 ENERGY DRIFT PER ATOM [K]    =         -0.782643817137E-02  -0.590005552087E-02
 POTENTIAL ENERGY[hartree]    =          0.335676287467E+00   0.335102183882E+00
 KINETIC ENERGY [hartree]     =          0.397679559872E+00   0.398255174565E+00
 TEMPERATURE [K]              =                     338.940              339.430
 *******************************************************************************

 FOBSH| Put former active state           2 in new active state           2
 RANDOM_NUMBER_HOPPING_PROBA  0.55277622583728636     
 FOBSH| ACTIVE STATE =            2

 ENERGY| Total FORCE_EVAL ( MIXED ) energy (a.u.):             0.336357718660713

 FOBSH| CASE1: no hop and no trivial crossing
 ENTER integrator.F
 STEP NUMBER                  =           34
 CPU TIME [s]                 =    7.7915728092193604E-002   5.8397299226592564E-002

 *******************************************************************************
 ENSEMBLE TYPE                =                                              NVE
 STEP NUMBER                  =                                               34
 TIME [fs]                    =                                         3.400000
 CONSERVED QUANTITY [hartree] =                               0.733356235301E+00

                                              INSTANTANEOUS             AVERAGES
 CPU TIME [s]                 =                        0.08                 0.06
 ENERGY DRIFT PER ATOM [K]    =         -0.733245111649E-02  -0.594218480309E-02
 POTENTIAL ENERGY[hartree]    =          0.336357718661E+00   0.335139111376E+00
 KINETIC ENERGY [hartree]     =          0.396998516641E+00   0.398218214038E+00
 TEMPERATURE [K]              =                     338.359              339.399
 *******************************************************************************

 FOBSH| Put former active state           2 in new active state           2
 RANDOM_NUMBER_HOPPING_PROBA  0.15904067109349640     
 FOBSH| ACTIVE STATE =            2

 ENERGY| Total FORCE_EVAL ( MIXED ) energy (a.u.):             0.337083191117683

 FOBSH| CASE1: no hop and no trivial crossing
 ENTER integrator.F
 STEP NUMBER                  =           35
 CPU TIME [s]                 =   0.12087931670248508        6.0182499725903782E-002

 *******************************************************************************
 ENSEMBLE TYPE                =                                              NVE
 STEP NUMBER                  =                                               35
 TIME [fs]                    =                                         3.500000
 CONSERVED QUANTITY [hartree] =                               0.733356659158E+00

                                              INSTANTANEOUS             AVERAGES
 CPU TIME [s]                 =                        0.12                 0.06
 ENERGY DRIFT PER ATOM [K]    =         -0.679276120111E-02  -0.596648698589E-02
 POTENTIAL ENERGY[hartree]    =          0.337083191118E+00   0.335194656511E+00
 KINETIC ENERGY [hartree]     =          0.396273468040E+00   0.398162649867E+00
 TEMPERATURE [K]              =                     337.741              339.351
 *******************************************************************************

 FOBSH| Put former active state           2 in new active state           2
 RANDOM_NUMBER_HOPPING_PROBA  0.15205437821040646     
 FOBSH| ACTIVE STATE =            2

 ENERGY| Total FORCE_EVAL ( MIXED ) energy (a.u.):             0.337846015440234

 FOBSH| CASE1: no hop and no trivial crossing
 ENTER integrator.F
 STEP NUMBER                  =           36
 CPU TIME [s]                 =    9.8664019256830215E-002   6.1251430823985070E-002

 *******************************************************************************
 ENSEMBLE TYPE                =                                              NVE
 STEP NUMBER                  =                                               36
 TIME [fs]                    =                                         3.600000
 CONSERVED QUANTITY [hartree] =                               0.733357113460E+00

                                              INSTANTANEOUS             AVERAGES
 CPU TIME [s]                 =                        0.10                 0.06
 ENERGY DRIFT PER ATOM [K]    =         -0.621430545091E-02  -0.597337083214E-02
 POTENTIAL ENERGY[hartree]    =          0.337846015440E+00   0.335268305370E+00
 KINETIC ENERGY [hartree]     =          0.395511098019E+00   0.398088995649E+00
 TEMPERATURE [K]              =                     337.091              339.289
 *******************************************************************************

 FOBSH| Put former active state           2 in new active state           2
 RANDOM_NUMBER_HOPPING_PROBA  0.55354628691860197     
 FOBSH| ACTIVE STATE =            2

 ENERGY| Total FORCE_EVAL ( MIXED ) energy (a.u.):             0.338638977916743

 FOBSH| CASE1: no hop and no trivial crossing
 ENTER integrator.F
 STEP NUMBER                  =           37
 CPU TIME [s]                 =    9.7684115171432495E-002   6.2236097968510685E-002

 *******************************************************************************
 ENSEMBLE TYPE                =                                              NVE
 STEP NUMBER                  =                                               37
 TIME [fs]                    =                                         3.700000
 CONSERVED QUANTITY [hartree] =                               0.733357555377E+00

                                              INSTANTANEOUS             AVERAGES
 CPU TIME [s]                 =                        0.10                 0.06
 ENERGY DRIFT PER ATOM [K]    =         -0.565161889704E-02  -0.596467483390E-02
 POTENTIAL ENERGY[hartree]    =          0.338638977917E+00   0.335359404628E+00
 KINETIC ENERGY [hartree]     =          0.394718577460E+00   0.397997903265E+00
 TEMPERATURE [K]              =                     336.416              339.211
 *******************************************************************************

 FOBSH| Put former active state           2 in new active state           2
 RANDOM_NUMBER_HOPPING_PROBA  0.10566806350344728     
 FOBSH| ACTIVE STATE =            2

 ENERGY| Total FORCE_EVAL ( MIXED ) energy (a.u.):             0.339454602531623

 FOBSH| CASE1: no hop and no trivial crossing
 ENTER integrator.F
 STEP NUMBER                  =           38
 CPU TIME [s]                 =    8.3388127386569977E-002   6.2792730321617515E-002

 *******************************************************************************
 ENSEMBLE TYPE                =                                              NVE
 STEP NUMBER                  =                                               38
 TIME [fs]                    =                                         3.800000
 CONSERVED QUANTITY [hartree] =                               0.733358058934E+00

                                              INSTANTANEOUS             AVERAGES
 CPU TIME [s]                 =                        0.08                 0.06
 ENERGY DRIFT PER ATOM [K]    =         -0.501044763770E-02  -0.593956359189E-02
 POTENTIAL ENERGY[hartree]    =          0.339454602532E+00   0.335467172994E+00
 KINETIC ENERGY [hartree]     =          0.393903456402E+00   0.397890154664E+00
 TEMPERATURE [K]              =                     335.721              339.119
 *******************************************************************************

 FOBSH| Put former active state           2 in new active state           2
 RANDOM_NUMBER_HOPPING_PROBA  0.81224550352130664     
 FOBSH| ACTIVE STATE =            2

 ENERGY| Total FORCE_EVAL ( MIXED ) energy (a.u.):             0.340284969392003

 FOBSH| CASE1: no hop and no trivial crossing
 ENTER integrator.F
 STEP NUMBER                  =           39
 CPU TIME [s]                 =    6.5550524741411209E-002   6.2863442999048114E-002

 *******************************************************************************
 ENSEMBLE TYPE                =                                              NVE
 STEP NUMBER                  =                                               39
 TIME [fs]                    =                                         3.900000
 CONSERVED QUANTITY [hartree] =                               0.733358566587E+00

                                              INSTANTANEOUS             AVERAGES
 CPU TIME [s]                 =                        0.07                 0.06
 ENERGY DRIFT PER ATOM [K]    =         -0.436406053564E-02  -0.589916607763E-02
 POTENTIAL ENERGY[hartree]    =          0.340284969392E+00   0.335590706235E+00
 KINETIC ENERGY [hartree]     =          0.393073597195E+00   0.397766653190E+00
 TEMPERATURE [K]              =                     335.014              339.014
 *******************************************************************************

 FOBSH| Put former active state           2 in new active state           2
 RANDOM_NUMBER_HOPPING_PROBA  0.18471943550315748     
 FOBSH| ACTIVE STATE =            2

 ENERGY| Total FORCE_EVAL ( MIXED ) energy (a.u.):             0.341121978152240

 FOBSH| CASE1: no hop and no trivial crossing
 ENTER integrator.F
 STEP NUMBER                  =           40
 CPU TIME [s]                 =    5.4229587316513062E-002   6.2647596606984740E-002

 *******************************************************************************
 ENSEMBLE TYPE                =                                              NVE
 STEP NUMBER                  =                                               40
 TIME [fs]                    =                                         4.000000
 CONSERVED QUANTITY [hartree] =                               0.733359082716E+00

                                              INSTANTANEOUS             AVERAGES
 CPU TIME [s]                 =                        0.05                 0.06
 ENERGY DRIFT PER ATOM [K]    =         -0.370688146935E-02  -0.584435896242E-02
 POTENTIAL ENERGY[hartree]    =          0.341121978152E+00   0.335728988033E+00
 KINETIC ENERGY [hartree]     =          0.392237104564E+00   0.397628414474E+00
 TEMPERATURE [K]              =                     334.301              338.896
 *******************************************************************************

 FOBSH| Put former active state           2 in new active state           2
 RANDOM_NUMBER_HOPPING_PROBA  0.70322681364397932     
 FOBSH| ACTIVE STATE =            2

 ENERGY| Total FORCE_EVAL ( MIXED ) energy (a.u.):             0.341957393795456

 FOBSH| CASE1: no hop and no trivial crossing
 ENTER integrator.F
 STEP NUMBER                  =           41
 CPU TIME [s]                 =    6.1824008822441101E-002   6.2627509100044651E-002

 *******************************************************************************
 ENSEMBLE TYPE                =                                              NVE
 STEP NUMBER                  =                                               41
 TIME [fs]                    =                                         4.100000
 CONSERVED QUANTITY [hartree] =                               0.733359601042E+00

                                              INSTANTANEOUS             AVERAGES
 CPU TIME [s]                 =                        0.06                 0.06
 ENERGY DRIFT PER ATOM [K]    =         -0.304690451356E-02  -0.577612836611E-02
 POTENTIAL ENERGY[hartree]    =          0.341957393795E+00   0.335880900369E+00
 KINETIC ENERGY [hartree]     =          0.391402207247E+00   0.397476555761E+00
 TEMPERATURE [K]              =                     333.589              338.767
 *******************************************************************************

 FOBSH| Put former active state           2 in new active state           2
 RANDOM_NUMBER_HOPPING_PROBA   8.4346146682276982E-002
 FOBSH| ACTIVE STATE =            2

 ENERGY| Total FORCE_EVAL ( MIXED ) energy (a.u.):             0.342782939403752

 FOBSH| CASE1: no hop and no trivial crossing
 ENTER integrator.F
 STEP NUMBER                  =           42
 CPU TIME [s]                 =    7.5729515403509140E-002   6.2939461631079510E-002

 *******************************************************************************
 ENSEMBLE TYPE                =                                              NVE
 STEP NUMBER                  =                                               42
 TIME [fs]                    =                                         4.200000
 CONSERVED QUANTITY [hartree] =                               0.733360114931E+00

                                              INSTANTANEOUS             AVERAGES
 CPU TIME [s]                 =                        0.08                 0.06
 ENERGY DRIFT PER ATOM [K]    =         -0.239257737012E-02  -0.569556762811E-02
 POTENTIAL ENERGY[hartree]    =          0.342782939404E+00   0.336045234631E+00
 KINETIC ENERGY [hartree]     =          0.390577175527E+00   0.397312284804E+00
 TEMPERATURE [K]              =                     332.886              338.627
 *******************************************************************************

 FOBSH| Put former active state           2 in new active state           2
 RANDOM_NUMBER_HOPPING_PROBA  0.59668247567255872     
 FOBSH| ACTIVE STATE =            2

[...]
 CPU TIME [s]                 =                        0.07                 0.05
 ENERGY DRIFT PER ATOM [K]    =         -0.139463991162E-01  -0.470135754663E-02
 POTENTIAL ENERGY[hartree]    =          0.328650961679E+00   0.345798999181E+00
 KINETIC ENERGY [hartree]     =          0.404700079225E+00   0.387559302188E+00
 TEMPERATURE [K]              =                     344.923              330.314
 *******************************************************************************

 FOBSH| Put former active state           1 in new active state           1
 RANDOM_NUMBER_HOPPING_PROBA  0.67156346880020612     
 FOBSH| ACTIVE STATE =            1

 ENERGY| Total FORCE_EVAL ( MIXED ) energy (a.u.):             0.328557537862080

 FOBSH| CASE1: no hop and no trivial crossing
 ENTER integrator.F
 STEP NUMBER                  =          191
 CPU TIME [s]                 =    7.6259566470980644E-002   5.4235317836959319E-002

 *******************************************************************************
 ENSEMBLE TYPE                =                                              NVE
 STEP NUMBER                  =                                              191
 TIME [fs]                    =                                        19.100000
 CONSERVED QUANTITY [hartree] =                               0.733350842602E+00

                                              INSTANTANEOUS             AVERAGES
 CPU TIME [s]                 =                        0.08                 0.05
 ENERGY DRIFT PER ATOM [K]    =         -0.141988932160E-01  -0.475108286427E-02
 POTENTIAL ENERGY[hartree]    =          0.328557537862E+00   0.345708729750E+00
 KINETIC ENERGY [hartree]     =          0.404793304740E+00   0.387649532568E+00
 TEMPERATURE [K]              =                     345.003              330.391
 *******************************************************************************

 FOBSH| Put former active state           1 in new active state           1
 RANDOM_NUMBER_HOPPING_PROBA  0.52754339150363250     
 FOBSH| ACTIVE STATE =            1

 ENERGY| Total FORCE_EVAL ( MIXED ) energy (a.u.):             0.328569746330924

 FOBSH| CASE1: no hop and no trivial crossing
 ENTER integrator.F
 STEP NUMBER                  =          192
 CPU TIME [s]                 =    7.6037306338548660E-002   5.4348869860405088E-002

 *******************************************************************************
 ENSEMBLE TYPE                =                                              NVE
 STEP NUMBER                  =                                              192
 TIME [fs]                    =                                        19.200000
 CONSERVED QUANTITY [hartree] =                               0.733350700787E+00

                                              INSTANTANEOUS             AVERAGES
 CPU TIME [s]                 =                        0.08                 0.05
 ENERGY DRIFT PER ATOM [K]    =         -0.143794639951E-01  -0.480123068266E-02
 POTENTIAL ENERGY[hartree]    =          0.328569746331E+00   0.345619464211E+00
 KINETIC ENERGY [hartree]     =          0.404780954457E+00   0.387738758724E+00
 TEMPERATURE [K]              =                     344.992              330.467
 *******************************************************************************

 FOBSH| Put former active state           1 in new active state           1
 RANDOM_NUMBER_HOPPING_PROBA  0.65576693145547105     
 FOBSH| ACTIVE STATE =            1

 ENERGY| Total FORCE_EVAL ( MIXED ) energy (a.u.):             0.328689776832944

 FOBSH| CASE1: no hop and no trivial crossing
 ENTER integrator.F
 STEP NUMBER                  =          193
 CPU TIME [s]                 =    3.1229633837938309E-002   5.4229081072723909E-002

 *******************************************************************************
 ENSEMBLE TYPE                =                                              NVE
 STEP NUMBER                  =                                              193
 TIME [fs]                    =                                        19.300000
 CONSERVED QUANTITY [hartree] =                               0.733350617388E+00

                                              INSTANTANEOUS             AVERAGES
 CPU TIME [s]                 =                        0.03                 0.05
 ENERGY DRIFT PER ATOM [K]    =         -0.144856553208E-01  -0.485140904866E-02
 POTENTIAL ENERGY[hartree]    =          0.328689776833E+00   0.345531745624E+00
 KINETIC ENERGY [hartree]     =          0.404660840555E+00   0.387826437904E+00
 TEMPERATURE [K]              =                     344.890              330.542
 *******************************************************************************

 FOBSH| Reordering: for state           5 old index was           6 with overlap  0.99960311322725059      and former  -4.4154917803952627E-005
 FOBSH| Reordering: for state           6 old index was           5 with overlap  0.99964991183499630      and former  -4.4745170454338814E-005
 FOBSH| New map:            1           2           3           4           6           5           7           8           9
 FOBSH| Put former active state           1 in new active state           1
 RANDOM_NUMBER_HOPPING_PROBA  0.98537062317065194     
 FOBSH| ACTIVE STATE =            1

 ENERGY| Total FORCE_EVAL ( MIXED ) energy (a.u.):             0.328918886007991

 FOBSH| CASE1: no hop and no trivial crossing
 ENTER integrator.F
 STEP NUMBER                  =          194
 CPU TIME [s]                 =    2.9806444421410561E-002   5.4103191193077965E-002

 *******************************************************************************
 ENSEMBLE TYPE                =                                              NVE
 STEP NUMBER                  =                                              194
 TIME [fs]                    =                                        19.400000
 CONSERVED QUANTITY [hartree] =                               0.733350593859E+00

                                              INSTANTANEOUS             AVERAGES
 CPU TIME [s]                 =                        0.03                 0.05
 ENERGY DRIFT PER ATOM [K]    =         -0.145156149985E-01  -0.490122454324E-02
 POTENTIAL ENERGY[hartree]    =          0.328918886008E+00   0.345446112327E+00
 KINETIC ENERGY [hartree]     =          0.404431707851E+00   0.387912032079E+00
 TEMPERATURE [K]              =                     344.694              330.615
 *******************************************************************************

 FOBSH| Put former active state           1 in new active state           1
 RANDOM_NUMBER_HOPPING_PROBA  0.76310986343930753     
 FOBSH| ACTIVE STATE =            1

 ENERGY| Total FORCE_EVAL ( MIXED ) energy (a.u.):             0.329257363129615

 FOBSH| CASE1: no hop and no trivial crossing
 ENTER integrator.F
 STEP NUMBER                  =          195
 CPU TIME [s]                 =    3.0567349866032600E-002   5.3982494570887989E-002

 *******************************************************************************
 ENSEMBLE TYPE                =                                              NVE
 STEP NUMBER                  =                                              195
 TIME [fs]                    =                                        19.500000
 CONSERVED QUANTITY [hartree] =                               0.733350631281E+00

                                              INSTANTANEOUS             AVERAGES
 CPU TIME [s]                 =                        0.03                 0.05
 ENERGY DRIFT PER ATOM [K]    =         -0.144679651351E-01  -0.495028475141E-02
 POTENTIAL ENERGY[hartree]    =          0.329257363130E+00   0.345363093100E+00
 KINETIC ENERGY [hartree]     =          0.404093268152E+00   0.387995012777E+00
 TEMPERATURE [K]              =                     344.406              330.686
 *******************************************************************************

 FOBSH| Put former active state           1 in new active state           1
 RANDOM_NUMBER_HOPPING_PROBA  0.86486706950058012     
 FOBSH| ACTIVE STATE =            1

 ENERGY| Total FORCE_EVAL ( MIXED ) energy (a.u.):             0.329704511231998

 FOBSH| CASE1: no hop and no trivial crossing
 ENTER integrator.F
 STEP NUMBER                  =          196
 CPU TIME [s]                 =    4.1791016235947609E-002   5.3920293150811760E-002

 *******************************************************************************
 ENSEMBLE TYPE                =                                              NVE
 STEP NUMBER                  =                                              196
 TIME [fs]                    =                                        19.600000
 CONSERVED QUANTITY [hartree] =                               0.733350731845E+00

                                              INSTANTANEOUS             AVERAGES
 CPU TIME [s]                 =                        0.04                 0.05
 ENERGY DRIFT PER ATOM [K]    =         -0.143399185813E-01  -0.499819104646E-02
 POTENTIAL ENERGY[hartree]    =          0.329704511232E+00   0.345283202376E+00
 KINETIC ENERGY [hartree]     =          0.403646220613E+00   0.388074865878E+00
 TEMPERATURE [K]              =                     344.025              330.754
 *******************************************************************************

 FOBSH| Put former active state           1 in new active state           1
 RANDOM_NUMBER_HOPPING_PROBA  0.17351479783912144     
 FOBSH| ACTIVE STATE =            1

 ENERGY| Total FORCE_EVAL ( MIXED ) energy (a.u.):             0.330258640755102

 FOBSH| CASE1: no hop and no trivial crossing
 ENTER integrator.F
 STEP NUMBER                  =          197
 CPU TIME [s]                 =    5.5340191349387169E-002   5.3927500755880667E-002

 *******************************************************************************
 ENSEMBLE TYPE                =                                              NVE
 STEP NUMBER                  =                                              197
 TIME [fs]                    =                                        19.700000
 CONSERVED QUANTITY [hartree] =                               0.733350895084E+00

                                              INSTANTANEOUS             AVERAGES
 CPU TIME [s]                 =                        0.06                 0.05
 ENERGY DRIFT PER ATOM [K]    =         -0.141320688951E-01  -0.504455590863E-02
 POTENTIAL ENERGY[hartree]    =          0.330258640755E+00   0.345206935566E+00
 KINETIC ENERGY [hartree]     =          0.403092254329E+00   0.388151096276E+00
 TEMPERATURE [K]              =                     343.553              330.819
 *******************************************************************************

 FOBSH| Put former active state           1 in new active state           1
 RANDOM_NUMBER_HOPPING_PROBA   3.6025587351369251E-002
 FOBSH| ACTIVE STATE =            1

 ENERGY| Total FORCE_EVAL ( MIXED ) energy (a.u.):             0.330917067630951

 FOBSH| CASE1: no hop and no trivial crossing
 ENTER integrator.F
 STEP NUMBER                  =          198
 CPU TIME [s]                 =    5.3649805486202240E-002   5.3926098254518655E-002

 *******************************************************************************
 ENSEMBLE TYPE                =                                              NVE
 STEP NUMBER                  =                                              198
 TIME [fs]                    =                                        19.800000
 CONSERVED QUANTITY [hartree] =                               0.733351119995E+00

                                              INSTANTANEOUS             AVERAGES
 CPU TIME [s]                 =                        0.05                 0.05
 ENERGY DRIFT PER ATOM [K]    =         -0.138456928814E-01  -0.508900609537E-02
 POTENTIAL ENERGY[hartree]    =          0.330917067631E+00   0.345134764516E+00
 KINETIC ENERGY [hartree]     =          0.402434052364E+00   0.388223232418E+00
 TEMPERATURE [K]              =                     342.992              330.880
 *******************************************************************************

 FOBSH| Put former active state           1 in new active state           1
 RANDOM_NUMBER_HOPPING_PROBA  0.79457741074080157     
 FOBSH| ACTIVE STATE =            1

 ENERGY| Total FORCE_EVAL ( MIXED ) energy (a.u.):             0.331676122543394

 FOBSH| CASE1: no hop and no trivial crossing
 ENTER integrator.F
 STEP NUMBER                  =          199
 CPU TIME [s]                 =    5.3205559030175209E-002   5.3922477454396323E-002

 *******************************************************************************
 ENSEMBLE TYPE                =                                              NVE
 STEP NUMBER                  =                                              199
 TIME [fs]                    =                                        19.900000
 CONSERVED QUANTITY [hartree] =                               0.733351402286E+00

                                              INSTANTANEOUS             AVERAGES
 CPU TIME [s]                 =                        0.05                 0.05
 ENERGY DRIFT PER ATOM [K]    =         -0.134862564255E-01  -0.513120333321E-02
 POTENTIAL ENERGY[hartree]    =          0.331676122543E+00   0.345067133149E+00
 KINETIC ENERGY [hartree]     =          0.401675279743E+00   0.388290830646E+00
 TEMPERATURE [K]              =                     342.345              330.938
 *******************************************************************************

 FOBSH| Put former active state           1 in new active state           1
 RANDOM_NUMBER_HOPPING_PROBA  0.20809715969586029     
 FOBSH| ACTIVE STATE =            1

 ENERGY| Total FORCE_EVAL ( MIXED ) energy (a.u.):             0.332531187508967

 FOBSH| CASE1: no hop and no trivial crossing
 ENTER integrator.F
 STEP NUMBER                  =          200
 CPU TIME [s]                 =    3.9410782977938652E-002   5.3849918982014036E-002

 *******************************************************************************
 ENSEMBLE TYPE                =                                              NVE
 STEP NUMBER                  =                                              200
 TIME [fs]                    =                                        20.000000
 CONSERVED QUANTITY [hartree] =                               0.733351744368E+00

                                              INSTANTANEOUS             AVERAGES
 CPU TIME [s]                 =                        0.04                 0.05
 ENERGY DRIFT PER ATOM [K]    =         -0.130506882008E-01  -0.517080075754E-02
 POTENTIAL ENERGY[hartree]    =          0.332531187509E+00   0.345004453421E+00
 KINETIC ENERGY [hartree]     =          0.400820556859E+00   0.388353479277E+00
 TEMPERATURE [K]              =                     341.617              330.991
 *******************************************************************************


 -------------------------------------------------------------------------------
 -                                                                             -
 -                                DBCSR STATISTICS                             -
 -                                                                             -
 -------------------------------------------------------------------------------
 COUNTER                                    TOTAL       BLAS       SMM       ACC
 flops total                                    0       0.0%      0.0%      0.0%
 flops max/rank                                 0       0.0%      0.0%      0.0%
 matmuls inhomo. stacks                         0       0.0%      0.0%      0.0%
 matmuls total                                  0       0.0%      0.0%      0.0%
 number of processed stacks                     0       0.0%      0.0%      0.0%
 average stack size                                     0.0       0.0       0.0
 marketing flops                     0.000000E+00
 -------------------------------------------------------------------------------

 MEMORY| Estimated peak process memory [MiB]                                 106

 -------------------------------------------------------------------------------
 -                                                                             -
 -                           R E F E R E N C E S                               -
 -                                                                             -
 -------------------------------------------------------------------------------
 
 CP2K version 4.0 (Development Version), the CP2K developers group (2015).
 CP2K is freely available from https://www.cp2k.org/ .

 Borstnik, U; VandeVondele, J; Weber, V; Hutter, J. 
 PARALLEL COMPUTING, 40 (5-6), 47-58 (2014). 
 Sparse matrix multiplication: The distributed block-compressed sparse
 row library.
 http://dx.doi.org/10.1016/j.parco.2014.03.012


 Hutter, J; Iannuzzi, M; Schiffmann, F; VandeVondele, J. 
 WILEY INTERDISCIPLINARY REVIEWS-COMPUTATIONAL MOLECULAR SCIENCE, 4 (1), 15-25 (2014). 
 CP2K: atomistic simulations of condensed matter systems.
 http://dx.doi.org/10.1002/wcms.1159


 Frigo, M; Johnson, SG. 
 PROCEEDINGS OF THE IEEE, 93 (2), 216-231 (2005). 
 The design and implementation of FFTW3.
 http://dx.doi.org/10.1109/JPROC.2004.840301


 -------------------------------------------------------------------------------
 -                                                                             -
 -                                T I M I N G                                  -
 -                                                                             -
 -------------------------------------------------------------------------------
 SUBROUTINE                       CALLS  ASD         SELF TIME        TOTAL TIME
                                MAXIMUM       AVERAGE  MAXIMUM  AVERAGE  MAXIMUM
 CP2K                                 1  1.0    0.030    0.030   28.415   28.415
 topology_control                     3  4.0    0.003    0.003   17.030   17.030
 connectivity_control                 3  5.0    0.013    0.013   16.870   16.870
 read_topology_psf                  384  6.0    7.332    7.332   16.856   16.856
 fist_create_force_env                2  2.0    0.000    0.000   12.636   12.636
 fist_init                            2  3.0    0.001    0.001   12.636   12.636
 qs_mol_dyn_low                       1  2.0    0.126    0.126   10.792   10.792
 parser_read_line                  7347  6.8    0.148    0.148   10.000   10.000
 parser_read_line_low               405  8.0    9.835    9.835    9.853    9.853
 velocity_verlet                    200  3.0    9.167    9.167    9.593    9.593
 mixed_create_force_env               1  2.0    0.000    0.000    4.936    4.936
 mixed_init                           1  3.0    0.000    0.000    4.936    4.936
 md_output                          200  3.0    0.001    0.001    1.039    1.039
 md_write_output                    201  4.0    0.982    0.982    1.036    1.036
 -------------------------------------------------------------------------------

 The number of warnings for this run is : 1
 
 -------------------------------------------------------------------------------
  **** **** ******  **  PROGRAM ENDED AT                 2021-04-29 14:23:58.618
 ***** ** ***  *** **   PROGRAM RAN ON                   bulstake.phys.ucl.ac.uk
 **    ****   ******    PROGRAM RAN BY                                 sgiannini
 ***** **    ** ** **   PROGRAM PROCESS ID                                 12963
  **** **  *******  **  PROGRAM STOPPED IN /scratch/sgiannini/REG_TEST_MERGING/3
                                           7-071a0540f1_code_extension_V3_ADJ/ru
                                           n-fssh-3NAP-3ANT-2FF-CT-Fluct-Couplin
                                           gs
