#     Step Nr.          Time[fs]        Kin.[a.u.]          Temp[K]            Pot.[a.u.]        Cons Qty[a.u.]        UsedTime[s]
         0            0.000000         0.359660390       306.536121699         0.356789629         0.716450019         0.000000000
         1            0.100000         0.359282689       306.214209854         0.357167486         0.716450175         0.080490679
         2            0.200000         0.358901287       305.889142829         0.357549080         0.716450367         0.011743600
         3            0.300000         0.358519263       305.563546336         0.357931331         0.716450593         0.012044754
         4            0.400000         0.358140235       305.240503964         0.358310615         0.716450851         0.012034537
         5            0.500000         0.357768314       304.923518117         0.358682821         0.716451136         0.012013897
         6            0.600000         0.357408048       304.616465764         0.359043397         0.716451445         0.011845017
         7            0.700000         0.357064364       304.323545762         0.359387410         0.716451774         0.012193738
         8            0.800000         0.356742498       304.049221437         0.359709621         0.716452118         0.011985010
         9            0.900000         0.356447925       303.798158854         0.360004549         0.716452474         0.011948967
        10            1.000000         0.356186280       303.575160883         0.360266555         0.716452835         0.011782261
        11            1.100000         0.355963280       303.385099786         0.360489917         0.716453197         0.011932699
        12            1.200000         0.355784643       303.232848612         0.360668912         0.716453555         0.011795750
        13            1.300000         0.355656006       303.123211881         0.360797898         0.716453904         0.011676731
        14            1.400000         0.355582846       303.060858139         0.360871394         0.716454240         0.011718124
        15            1.500000         0.355570409       303.050258620         0.360884148         0.716454557         0.011597900
        16            1.600000         0.355623635       303.095622565         0.360831219         0.716454854         0.012004368
        17            1.700000         0.355747091       303.200842925         0.360708037         0.716455127         0.011812661
        18            1.800000         0.355944926       303.369456474         0.360510450         0.716455375         0.011869431
        19            1.900000         0.356220821       303.604599720         0.360234774         0.716455594         0.011767041
        20            2.000000         0.356577951       303.908979497         0.359877833         0.716455784         0.012163322
        21            2.100000         0.357018968       304.284855504         0.359436977         0.716455945         0.011811590
        22            2.200000         0.357545979       304.734023123         0.358910097         0.716456076         0.025019359
        23            2.300000         0.358160524       305.257796103         0.358295650         0.716456175         0.023667630
        24            2.400000         0.358863547       305.856978000         0.357592689         0.716456237         0.025013689
        25            2.500000         0.357192280       304.432568169         0.359256514         0.716448794         0.045260182
        26            2.600000         0.358143585       305.243358752         0.358304746         0.716448331         0.024854505
        27            2.700000         0.363921803       310.168095440         0.352540421         0.716462224         0.048209215
        28            2.800000         0.364891185       310.994292635         0.351570735         0.716461920         0.025135215
        29            2.900000         0.365925996       311.876255000         0.350535572         0.716461568         0.021977937
        30            3.000000         0.367020421       312.809026118         0.349440749         0.716461170         0.024825254
        31            3.100000         0.368167911       313.787024020         0.348292824         0.716460735         0.024727518
        32            3.200000         0.369361265       314.804112069         0.347099002         0.716460268         0.011548350
        33            3.300000         0.370592742       315.853691235         0.345867037         0.716459779         0.033365190
        34            3.400000         0.371854189       316.928814427         0.344605091         0.716459280         0.039770231
        35            3.500000         0.373137206       318.022320688         0.343321579         0.716458785         0.026348734
        36            3.600000         0.374433317       319.126987191         0.342024989         0.716458306         0.026231812
        37            3.700000         0.375734142       320.235671952         0.340723708         0.716457850         0.012667663
        38            3.800000         0.377031490       321.341392345         0.339425918         0.716457407         0.012020703
        39            3.900000         0.377195930       321.481543920         0.339257711         0.716453641         0.020400126
        40            4.000000         0.378483911       322.579281672         0.337968900         0.716452811         0.012701774
        41            4.100000         0.379708923       323.623351092         0.336743248         0.716452171         0.012028141
        42            4.200000         0.380860740       324.605037016         0.335590963         0.716451703         0.012714423
        43            4.300000         0.381931259       325.517432854         0.334520078         0.716451337         0.012286264
        44            4.400000         0.382913780       326.354828845         0.333537228         0.716451008         0.012808695
        45            4.500000         0.383802291       327.112101051         0.332648395         0.716450687         0.012401175
        46            4.600000         0.384591095       327.784392703         0.331859275         0.716450370         0.012832886
        47            4.700000         0.385274755       328.367071453         0.331175313         0.716450067         0.026465064
        48            4.800000         0.385848221       328.855833088         0.330601572         0.716449793         0.027328886
        49            4.900000         0.386307002       329.246849077         0.330142556         0.716449558         0.013728393
        50            5.000000         0.386647330       329.536908377         0.329802043         0.716449373         0.011733321
        51            5.100000         0.386866302       329.723536719         0.329582945         0.716449247         0.013567762
        52            5.200000         0.386961991       329.805091525         0.329487191         0.716449182         0.013453649
        53            5.300000         0.386933517       329.780823320         0.329515670         0.716449187         0.011679804
        54            5.400000         0.386781104       329.650922606         0.329668158         0.716449261         0.012324432
        55            5.500000         0.386506121       329.416556660         0.329943287         0.716449408         0.025894647
        56            5.600000         0.386111092       329.079876031         0.330338533         0.716449625         0.026490366
        57            5.700000         0.385599689       328.644010765         0.330850223         0.716449912         0.025885981
        58            5.800000         0.384976717       328.113055670         0.331473551         0.716450267         0.026175905
        59            5.900000         0.384248073       327.492037854         0.332202614         0.716450687         0.026950233
        60            6.000000         0.383420701       326.786874382         0.333030467         0.716451169         0.012155809
        61            6.100000         0.382502527       326.004320561         0.333949179         0.716451706         0.012984568
        62            6.200000         0.381502380       325.151902320         0.334949914         0.716452294         0.013144910
        63            6.300000         0.380429912       324.237844704         0.336023016         0.716452928         0.012164876
        64            6.400000         0.379295489       323.270984023         0.337158111         0.716453600         0.026554985
        65            6.500000         0.378110089       322.260675362         0.338344215         0.716454304         0.026410352
        66            6.600000         0.376885189       321.216701099         0.339569842         0.716455031         0.026111485
        67            6.700000         0.375632642       320.149163751         0.340823133         0.716455774         0.026506634
        68            6.800000         0.374364550       319.068378163         0.342091975         0.716456525         0.025797356
        69            6.900000         0.373093137       317.984760991         0.343364139         0.716457276         0.011630913
        70            7.000000         0.371830613       316.908719987         0.344627405         0.716458017         0.011674155
        71            7.100000         0.370589042       315.850537737         0.345869702         0.716458744         0.011464776
        72            7.200000         0.369380210       314.820258032         0.347079234         0.716459444         0.011616467
        73            7.300000         0.368215496       313.827580299         0.348244616         0.716460111         0.011672972
        74            7.400000         0.367105753       312.881754066         0.349354986         0.716460739         0.011909166
        75            7.500000         0.366061185       311.991475826         0.350400135         0.716461320         0.011742331
        76            7.600000         0.365091234       311.164793402         0.351370612         0.716461847         0.011755966
        77            7.700000         0.364204481       310.409019305         0.352257834         0.716462314         0.011800429
        78            7.800000         0.363408547       309.730650194         0.353054171         0.716462717         0.011661401
        79            7.900000         0.362710014       309.135295459         0.353753037         0.716463051         0.011464836
        80            8.000000         0.362114351       308.627616255         0.354348961         0.716463312         0.011507807
        81            8.100000         0.361625853       308.211272022         0.354837644         0.716463497         0.011558225
        82            8.200000         0.361247586       307.888877576         0.355216017         0.716463602         0.011508400
        83            8.300000         0.360981352       307.661968473         0.355482274         0.716463626         0.011530878
        84            8.400000         0.360827650       307.530969466         0.355635915         0.716463565         0.011492234
        85            8.500000         0.360785635       307.495159832         0.355677780         0.716463414         0.011537999
        86            8.600000         0.360853043       307.552611603         0.355610120         0.716463163         0.011542598
        87            8.700000         0.361026035       307.700051625         0.355436745         0.716462781         0.011447689
        88            8.800000         0.361298760       307.932492863         0.355163425         0.716462185         0.011526287
        89            8.900000         0.361662078       308.242146498         0.354799040         0.716461117         0.012209134
        90            9.000000         0.362099765       308.615184523         0.354359101         0.716458866         0.011480143
        91            9.100000         0.362582253       309.026405486         0.353873357         0.716455610         0.011033902
        92            9.200000         0.363081211       309.451664242         0.353375506         0.716456717         0.011276333
        93            9.300000         0.364143922       310.357405844         0.352316439         0.716460361         0.018630780
        94            9.400000         0.364869929       310.976176023         0.351588941         0.716458869         0.012161296
        95            9.500000         0.365653939       311.644382996         0.350803933         0.716457872         0.011558676
        96            9.600000         0.366480885       312.349183223         0.349976169         0.716457053         0.011539292
        97            9.700000         0.367338139       313.079815262         0.349118166         0.716456305         0.011560034
        98            9.800000         0.368214004       313.826309277         0.348241588         0.716455592         0.010741986
        99            9.900000         0.369097243       314.579087180         0.347357662         0.716454905         0.011794943
       100           10.000000         0.369976970       315.328872621         0.346477275         0.716454244         0.011345197
