     248
 i =   397000, time =   198500.000, E =         0.3561138904
  C        -0.0000543064       -0.0000015499        0.0003694317
  C        -0.0007296597        0.0001039442        0.0001001277
  C         0.0001390686        0.0002270442        0.0001543899
  C        -0.0006203132        0.0003176543       -0.0001446969
  C        -0.0000800765        0.0002182163       -0.0001927764
  H         0.0000508588       -0.0011592949        0.0007224887
  H         0.0012556765        0.0012392901        0.0003990339
  H         0.0001980062       -0.0004009803        0.0000147754
  H         0.0003813973        0.0006320215       -0.0005739689
  C         0.0001257955       -0.0003520802        0.0004039453
  C         0.0002354502       -0.0000992007       -0.0003742212
  C        -0.0002227305       -0.0005095416       -0.0004520766
  C        -0.0003443974        0.0001563223        0.0000040264
  C         0.0000671714        0.0000197174        0.0001092554
  H         0.0013887418        0.0003231569       -0.0001092724
  H         0.0008344314       -0.0001178271        0.0009578241
  H         0.0013071031        0.0007841994        0.0010250273
  H        -0.0000775021       -0.0023321481       -0.0019658112
  C        -0.0001288284       -0.0003289997       -0.0000243016
  C         0.0002487203        0.0003651691       -0.0001855160
  C         0.0001108662       -0.0000544904        0.0000483462
  C         0.0000886309        0.0003743790       -0.0001155331
  C        -0.0001548017        0.0002817198       -0.0001358332
  H        -0.0013629130       -0.0002203441        0.0002177850
  H         0.0001735455        0.0010385034        0.0006526775
  H        -0.0013162725        0.0004023177        0.0001263727
  H        -0.0003102948       -0.0012693167        0.0005811669
  C        -0.0001640922       -0.0001569045       -0.0003648208
  C        -0.0001043510       -0.0000513442       -0.0000439335
  C         0.0003333271        0.0000301589       -0.0000504196
  C        -0.0003684124       -0.0001590954       -0.0005037185
  C         0.0002641191        0.0000276334       -0.0001067380
  H         0.0003421735        0.0016228200        0.0010398467
  H         0.0002589416       -0.0002362382       -0.0001548479
  H         0.0004662196       -0.0007861350        0.0004126475
  H         0.0002502106       -0.0007935398        0.0015396850
  C         0.0000786857       -0.0001670716        0.0000613514
  C        -0.0002532505       -0.0000992467        0.0002416665
  C         0.0003539031       -0.0001253036       -0.0000003666
  C         0.0000538263        0.0002136086        0.0001642439
  C         0.0002515661       -0.0004140258        0.0000120867
  H        -0.0012405179       -0.0004744244        0.0001406247
  H         0.0000615801        0.0007164720       -0.0005644943
  H         0.0004897719       -0.0004384027        0.0002721512
  H        -0.0003283896       -0.0004324730       -0.0001228653
  C        -0.0005506988        0.0001611231       -0.0002623241
  C         0.0001045510        0.0002551619       -0.0002327068
  C        -0.0003096918       -0.0000263798       -0.0001626775
  C         0.0003056803       -0.0001820932        0.0000264907
  C         0.0000885335       -0.0001667540        0.0000633599
  H         0.0003488803        0.0002693379        0.0009108971
  H         0.0009768841       -0.0010847189        0.0005715923
  H         0.0003290418       -0.0003014149       -0.0009462135
  H        -0.0022296690       -0.0015063151       -0.0001853974
  C         0.0001528110       -0.0000180033       -0.0004119775
  C        -0.0001485038       -0.0000650025        0.0000083071
  C        -0.0004305376       -0.0001475137       -0.0000397063
  C        -0.0000683681       -0.0000490336       -0.0000128581
  C        -0.0000864156        0.0001982005       -0.0001133197
  C         0.0001169361       -0.0001370636        0.0003338546
  C         0.0000769753        0.0001083461       -0.0001072510
  H         0.0004546976       -0.0004379650       -0.0002702050
  H        -0.0010531326        0.0013622191        0.0004141635
  H         0.0007546865        0.0003167613       -0.0011711892
  H         0.0007252514        0.0004532001        0.0006756466
  H         0.0013000399       -0.0003511871       -0.0008205401
  C         0.0000741851       -0.0004902202        0.0000195606
  C         0.0001297799       -0.0002040503        0.0000045293
  C        -0.0000852700        0.0000322011       -0.0004140747
  C         0.0002937765        0.0000143851       -0.0001612282
  H        -0.0007899067       -0.0002337998       -0.0000148816
  C         0.0002309872       -0.0000520241       -0.0001176011
  C        -0.0004237576        0.0000420240        0.0001357608
  H        -0.0001960993        0.0013756229       -0.0000128922
  C         0.0000662137       -0.0001653777       -0.0000954659
  H         0.0000784888       -0.0002868074       -0.0003851369
  H        -0.0006163165        0.0012420986        0.0001253268
  H        -0.0000498695        0.0002410857       -0.0008516756
  C        -0.0001487691       -0.0001878439        0.0000477355
  C        -0.0001617480        0.0000446865        0.0000550754
  C         0.0001550272        0.0003440455       -0.0001270509
  C        -0.0000642263        0.0000024623       -0.0002194976
  C         0.0002359053       -0.0000309752        0.0002630331
  C        -0.0001982178       -0.0005006768        0.0000614182
  C        -0.0000652366        0.0001561843       -0.0003576504
  H        -0.0011295507       -0.0002439619        0.0006201011
  H        -0.0005967808        0.0000969679        0.0003806566
  H        -0.0007162792       -0.0007276953        0.0002282160
  H        -0.0008707097       -0.0003535518        0.0005116741
  H         0.0001586451        0.0003868399       -0.0006718870
  C         0.0001635695       -0.0003629234       -0.0001635220
  C        -0.0000180031       -0.0001189798       -0.0000925506
  C         0.0001641946       -0.0001413221       -0.0002701473
  C        -0.0000629443        0.0001759719        0.0000871935
  H         0.0010752022        0.0004089433        0.0008019932
  C        -0.0001536732       -0.0000740772       -0.0000539268
  C         0.0002455128       -0.0000036779       -0.0000978951
  H        -0.0004031883       -0.0004476360       -0.0001119121
  C        -0.0001932302       -0.0001512834        0.0003178852
  H         0.0002020584        0.0011302524       -0.0000189100
  H         0.0003080261       -0.0006457748        0.0009741591
  H         0.0007362519        0.0001830221        0.0011752077
  C         0.0000035541       -0.0001350101        0.0001089476
  C        -0.0000873571       -0.0001961728        0.0002478678
  C        -0.0001692615        0.0002719493        0.0001049401
  C        -0.0002211592       -0.0004888286        0.0007633519
  C        -0.0000788606        0.0000247912        0.0001209700
  C         0.0000294000       -0.0003231390       -0.0000113298
  C         0.0001168033        0.0001306861       -0.0000516779
  H        -0.0000856904       -0.0005005131        0.0003201401
  H        -0.0013189170       -0.0002374480        0.0001527631
  H         0.0009717903        0.0001674992       -0.0003528673
  H        -0.0007872762        0.0002107064        0.0000044967
  H        -0.0002396337        0.0012955917       -0.0003844702
  C         0.0003370959       -0.0003955181       -0.0002702870
  C         0.0000861318        0.0001411314       -0.0001867587
  C         0.0001491091       -0.0003720785       -0.0001394896
  C        -0.0002899808        0.0002883304        0.0001498260
  H        -0.0014020340        0.0014414033       -0.0004351367
  C        -0.0002907697       -0.0000816893        0.0000216310
  C        -0.0000523119       -0.0000637125       -0.0000311368
  H        -0.0012223062        0.0012370315       -0.0003432117
  C         0.0003025456       -0.0002056606       -0.0000618203
  H         0.0011293745       -0.0009680995        0.0003620463
  H        -0.0000825469        0.0011558849       -0.0003630151
  H        -0.0007541961       -0.0008650581       -0.0003752889
 Ne        -0.0001440689       -0.0001019581       -0.0000270059
 Ne        -0.0000775873        0.0001489783        0.0000943275
 Ne        -0.0001147418       -0.0000524942       -0.0000115684
 Ne         0.0000482615       -0.0001370646       -0.0003756363
 Ne        -0.0000061339        0.0001081416       -0.0000200314
 Ne         0.0002027544       -0.0000121651       -0.0004450927
 Ne         0.0001367812       -0.0000539073        0.0000864659
 Ne        -0.0001896398       -0.0000154125        0.0002602501
 Ne         0.0001176947       -0.0000208278       -0.0002385667
 Ne         0.0001139378       -0.0000216919       -0.0000080719
 Ne        -0.0000281518       -0.0001004961       -0.0001331030
 Ne        -0.0000631568       -0.0002450783       -0.0001917567
 Ne         0.0001713449       -0.0000763133       -0.0002723866
 Ne         0.0000229228       -0.0000850001        0.0000081378
 Ne         0.0002107356       -0.0000893570        0.0000978472
 Ne        -0.0000322182       -0.0000685060       -0.0001423685
 Ne         0.0003239290        0.0001256528        0.0000592490
 Ne         0.0002093952        0.0000684712       -0.0000172248
 Ne        -0.0000799614        0.0000596484       -0.0001406771
 Ne         0.0000673539       -0.0001361624        0.0000533917
 Ne         0.0001615199       -0.0000602158       -0.0001533380
 Ne         0.0000335586        0.0000839878       -0.0001488445
 Ne        -0.0000401678        0.0001485067       -0.0002921774
 Ne        -0.0001385052        0.0002158779       -0.0000371855
 Ne        -0.0001533975        0.0000593655        0.0001099821
 Ne        -0.0000948721        0.0000208832        0.0002765140
 Ne         0.0001483490       -0.0000818955       -0.0002729925
 Ne        -0.0000243634        0.0002527497        0.0001580814
 Ne        -0.0000374194       -0.0000984503        0.0000935865
 Ne        -0.0000026517        0.0002296572       -0.0001348955
 Ne         0.0001118208       -0.0000662645       -0.0000550673
 Ne        -0.0001187753       -0.0001785481       -0.0002664611
 Ne        -0.0001269687        0.0000164495        0.0002016239
 Ne        -0.0001269421        0.0000109980       -0.0000787706
 Ne         0.0000930866        0.0001776637       -0.0001025549
 Ne        -0.0000198639        0.0000108115        0.0001750277
 Ne         0.0001736289        0.0003086524        0.0000041018
 Ne         0.0000898175       -0.0002894565       -0.0000516859
 Ne        -0.0002062062        0.0001196690        0.0000757609
 Ne        -0.0001726977       -0.0001185093        0.0001468938
 Ne         0.0000526287       -0.0000521237       -0.0000099385
 Ne        -0.0000705256       -0.0000102774        0.0001920831
 Ne        -0.0001404893       -0.0001425560       -0.0000093733
 Ne        -0.0001344964       -0.0001114219        0.0000628036
 Ne        -0.0002333779       -0.0001040577        0.0000301262
 Ne        -0.0000609373       -0.0001159692        0.0001183909
 Ne        -0.0002093484       -0.0000860138       -0.0002148120
 Ne         0.0001848578       -0.0001683872        0.0001095547
 Ne         0.0001435430       -0.0000797389       -0.0001563001
 Ne         0.0001041251        0.0001763098        0.0000618766
 Ne        -0.0001313211        0.0000556255        0.0001984577
 Ne         0.0000818761       -0.0001311254       -0.0000288700
 Ne        -0.0002695260        0.0001093682        0.0000856365
 Ne        -0.0002813322        0.0002381399        0.0001681786
 Ne        -0.0000594929        0.0000173100       -0.0000686612
 Ne         0.0000823611       -0.0000803017        0.0001299779
 Ne         0.0000797855        0.0000465134        0.0000629067
 Ne         0.0002131862       -0.0000033331        0.0001532147
 Ne         0.0001693886       -0.0000031530       -0.0000922948
 Ne        -0.0000981099        0.0001393334        0.0000549652
 Ne         0.0001286044       -0.0001125890       -0.0000401686
 Ne         0.0001510918        0.0000821043        0.0000511422
 Ne        -0.0002458742       -0.0001377469        0.0001172465
 Ne        -0.0002537465       -0.0000190089       -0.0000119108
 Ne        -0.0000901248       -0.0002262184        0.0003068977
 Ne         0.0000529055        0.0000869042       -0.0001156774
 Ne         0.0001924660       -0.0001776434       -0.0000491425
 Ne        -0.0001108571       -0.0001032063        0.0002368620
 Ne        -0.0000191268        0.0000380110       -0.0000672011
 Ne        -0.0001485371        0.0003643579        0.0002049794
 Ne        -0.0001378689       -0.0000292273        0.0001596396
 Ne        -0.0000037472       -0.0000031125        0.0000162554
 Ne        -0.0000340101       -0.0000794592        0.0000094494
 Ne        -0.0000034048        0.0001702454        0.0002614721
 Ne         0.0000472249        0.0000756960       -0.0001823683
 Ne         0.0000176667        0.0001725445       -0.0001104133
 Ne        -0.0000284864        0.0000653310        0.0002617453
 Ne         0.0001252780        0.0003442726       -0.0003259518
 Ne         0.0000343417        0.0003743845        0.0000990615
 Ne         0.0000071192       -0.0004960842        0.0002499387
 Ne         0.0000675766       -0.0000069432        0.0002484899
 Ne         0.0001438615       -0.0000692018        0.0002044093
 Ne         0.0000165666        0.0000410719       -0.0001398581
 Ne         0.0001092978       -0.0001085707       -0.0000988640
 Ne        -0.0002650253       -0.0000136846       -0.0000873970
 Ne        -0.0001145322        0.0002915305       -0.0000074342
 Ne        -0.0002035138       -0.0000323631       -0.0003463209
 Ne         0.0001009144       -0.0002420087       -0.0003294272
 Ne         0.0000594040       -0.0000799381        0.0002608476
 Ne        -0.0000563707       -0.0002102518        0.0003351661
 Ne        -0.0001391014        0.0000637556        0.0000785739
 Ne        -0.0001047063        0.0000555581       -0.0000633793
 Ne        -0.0000169622        0.0000804706       -0.0000897641
 Ne        -0.0002807988        0.0000183481        0.0001536194
 Ne        -0.0000126017       -0.0000176599        0.0001856747
 Ne         0.0001294675        0.0001088973        0.0001230635
 Ne        -0.0001000150        0.0001491523        0.0000624496
 Ne         0.0000117836        0.0000590149       -0.0003819700
 Ne        -0.0001280824        0.0001405425       -0.0001213072
 Ne        -0.0000695093        0.0001659300       -0.0000182136
 Ne        -0.0000968953       -0.0000681353       -0.0001898976
 Ne         0.0000518177       -0.0000744688       -0.0000674069
 Ne        -0.0002172896       -0.0000599639       -0.0001910420
 Ne         0.0001172586       -0.0000043282       -0.0001198406
 Ne        -0.0000923541        0.0000242329        0.0001414494
 Ne        -0.0001213853        0.0003121370       -0.0000520664
 Ne         0.0000936799        0.0000985217       -0.0000825325
 Ne        -0.0001288335       -0.0002364263       -0.0000314882
 Ne        -0.0002025152        0.0001048580       -0.0000132773
 Ne         0.0001852503        0.0000946865        0.0001856330
 Ne         0.0002607277       -0.0000271247       -0.0000823172
 Ne        -0.0001957866       -0.0000611978        0.0002130876
 Ne         0.0001999170        0.0000544062        0.0000401991
 Ne         0.0001886388        0.0001750743        0.0000044122
 Ne        -0.0000056400        0.0001086292        0.0000730013
 Ne         0.0002471687        0.0001067841       -0.0000906682
 Ne        -0.0001126653        0.0000031199       -0.0002687244
 Ne        -0.0001622997        0.0002481397       -0.0000535953
 Ne        -0.0000249072        0.0002070722        0.0000501418
 Ne        -0.0001219164       -0.0001691370        0.0001831256
 Ne         0.0000623184       -0.0000966540        0.0000407404
 Ne        -0.0002848983        0.0000506333       -0.0000768038
