15360
 i =        0, time =        0.000, E =        22.4068577801
  C        -0.0002655096        0.0000437766       -0.0000491999
  C        -0.0001436152        0.0000563673       -0.0000880657
  C        -0.0001242806        0.0002522404        0.0004232545
  C         0.0003352476        0.0000135307       -0.0001257455
  C         0.0004463871        0.0002840451       -0.0001552170
  C         0.0002975110       -0.0001362480        0.0001133130
  C         0.0002894045       -0.0002744422       -0.0000591761
  H         0.0000131715       -0.0014438868       -0.0007065017
  H         0.0001280784        0.0005036186        0.0004681045
  H         0.0000094869       -0.0001715873       -0.0001835812
  H        -0.0005644595       -0.0008142844        0.0007144225
  H         0.0007422369       -0.0000686097        0.0008476775
  C         0.0003069119       -0.0003875083        0.0001617283
  C         0.0000853330       -0.0001178033       -0.0002439599
  C         0.0000068674        0.0002871442       -0.0000449075
  C         0.0001367450       -0.0000947772        0.0001544763
  H         0.0001996806       -0.0006965207       -0.0004968028
  C         0.0001721445        0.0002675562       -0.0000385051
  C         0.0000098690        0.0003187903        0.0001855678
  H        -0.0002776917       -0.0006520073        0.0000303737
  C        -0.0001943842        0.0001864083        0.0000676023
  H        -0.0010854327        0.0005044857        0.0002586288
  H         0.0017808424        0.0008696748        0.0001594526
  H        -0.0015096740        0.0000030351       -0.0006765924
  C        -0.0000230022        0.0002109378        0.0000125511
  C        -0.0000918524        0.0001220230        0.0000687857
  C         0.0003507122       -0.0000261807       -0.0001165703
  C        -0.0001893950       -0.0003519947       -0.0001595921
  C        -0.0004430388        0.0000862638        0.0001435887
  C        -0.0002486847        0.0000175356       -0.0001524288
  C         0.0002632300       -0.0001471562       -0.0000012302
  H         0.0001454602       -0.0005312559       -0.0002042737
  H         0.0001596960       -0.0003582059        0.0012400098
  H        -0.0006199823        0.0004602714        0.0005045012
  H        -0.0009883462       -0.0004616727       -0.0015150847
  H        -0.0000352628       -0.0004690237       -0.0006467171
  C        -0.0001196237        0.0001631169       -0.0001239547
  C        -0.0000299767        0.0001564212        0.0000338715
  C        -0.0000967681       -0.0003904147        0.0000925792
  C         0.0001298037        0.0002049741        0.0000251988
  H         0.0002813134        0.0006524198        0.0002371405
  C        -0.0003332747       -0.0001042273        0.0002592948
  C        -0.0005643302       -0.0003481545        0.0001700856
  H         0.0003179915        0.0004020648       -0.0009600802
  C        -0.0001017243       -0.0003466241        0.0003834219
  H        -0.0006710091        0.0006397959       -0.0002197720
  H        -0.0000996377       -0.0004867262        0.0004921890
  H         0.0006565414       -0.0004061217        0.0002062930
  C         0.0001233154        0.0001488319        0.0001084105
  C        -0.0000716349       -0.0001285504        0.0000327396
  C        -0.0000272011        0.0002606068        0.0001868063
  C        -0.0002236256       -0.0000210905        0.0002288315
  C         0.0000075766       -0.0002933797       -0.0002847032
  C        -0.0002220723       -0.0005156531        0.0004481008
  C         0.0000289103       -0.0000989195       -0.0000543267
  H        -0.0001062906        0.0006360747       -0.0003285607
  H        -0.0000402721       -0.0006171930       -0.0000929707
  H         0.0004000761       -0.0013755590        0.0007159354
  H        -0.0003790816        0.0007744395       -0.0000155025
  H        -0.0004959406        0.0007222161       -0.0010017316
  C        -0.0001501235       -0.0001110784        0.0004753876
  C         0.0000005217        0.0002930216       -0.0000796216
  C         0.0000919120        0.0001843646        0.0002687474
  C         0.0001323097        0.0000460095       -0.0002341248
  H         0.0003004604       -0.0016630987       -0.0000476770
  C        -0.0002253812        0.0001916984        0.0000930201
  C         0.0001385242        0.0002757514        0.0001628742
  H         0.0005609093        0.0012362450        0.0012723519
  C         0.0000707305       -0.0001431148        0.0004117325
  H         0.0006268247       -0.0008848522        0.0014335643
  H         0.0001702638       -0.0012579915        0.0007170702
  H         0.0005176392        0.0008108556        0.0002198819
  C        -0.0002245714       -0.0001577074        0.0000589609
  C        -0.0003045053       -0.0000194778       -0.0001958184
  C        -0.0000196971       -0.0001464398       -0.0000496889
  C         0.0002487448       -0.0001266682        0.0001839492
  C        -0.0000643624        0.0002521403        0.0001083355
  C         0.0000643973        0.0000780844       -0.0003084928
  C         0.0001035493        0.0002414077       -0.0001831695
  H         0.0001637667       -0.0001901196        0.0008441524
  H        -0.0001101390       -0.0002069169       -0.0009354160
  H        -0.0008225302       -0.0000438581       -0.0012154609
  H        -0.0000681131       -0.0008296611       -0.0001496971
  H         0.0001615965        0.0002089475        0.0006250457
  C        -0.0000698744       -0.0001849211       -0.0001167870
  C         0.0001658825        0.0001367284       -0.0006244675
  C         0.0000243334        0.0000700310       -0.0001034866
  C         0.0000409040       -0.0001362056        0.0001323022
  H        -0.0005699077       -0.0002689169        0.0021641229
  C        -0.0003862226        0.0002708381       -0.0000443324
  C        -0.0000075336        0.0001197342       -0.0001231139
  H         0.0002443710        0.0000334491        0.0000505172
  C         0.0000266523       -0.0002758731       -0.0005544346
  H        -0.0011993028       -0.0000969938       -0.0002943953
  H        -0.0001777074        0.0004021650        0.0001648819
  H         0.0000927574       -0.0006421409       -0.0002093577
  C         0.0000100526        0.0001631105       -0.0000597905
  C        -0.0001027673       -0.0000949665        0.0000347906
  C         0.0001611112       -0.0000942687       -0.0000907581
  C         0.0000801922       -0.0001042998       -0.0000785104
  C         0.0001436048       -0.0002822376        0.0001510408
  C        -0.0002476264       -0.0002036509       -0.0004748311
  C        -0.0001658968        0.0003868894       -0.0003068689
  H         0.0005091197        0.0000016886        0.0002715041
  H         0.0010291335        0.0000760991       -0.0015587924
  H         0.0005814488        0.0007052013       -0.0013997132
  H        -0.0004801100       -0.0006050512       -0.0014003670
  H         0.0001449847        0.0005537496        0.0002924028
  C         0.0002526104       -0.0000870669       -0.0001663466
  C         0.0001700668       -0.0000377765        0.0002926746
  C         0.0000026578       -0.0002676788       -0.0000625548
  C        -0.0000676910        0.0001309627        0.0000079627
  H        -0.0004280691       -0.0005094447       -0.0000422033
  C         0.0001139563       -0.0000943813        0.0000672655
  C         0.0000496029        0.0000163081       -0.0001197410
  H         0.0003846415        0.0011190851        0.0001638519
  C        -0.0001636119       -0.0002555034       -0.0001855044
  H        -0.0000570417        0.0005136875       -0.0014080540
  H        -0.0006762201       -0.0003453839       -0.0004412915
  H        -0.0003061955        0.0002948385        0.0004295994
  C        -0.0002882022        0.0001409091        0.0000956463
  C         0.0001953436        0.0002410020        0.0001806630
  C        -0.0001974301       -0.0000245726       -0.0000309396
  C        -0.0000459948       -0.0000837782       -0.0001702209
  C        -0.0002765771       -0.0002066743       -0.0001768063
  C         0.0000226113       -0.0000761612        0.0004408034
  C         0.0002191451       -0.0000566241        0.0000140844
  H        -0.0001028119       -0.0002865983       -0.0008930106
  H        -0.0000510588        0.0001190520       -0.0003025634
  H         0.0009182598       -0.0006576163        0.0002857257
  H         0.0016830878       -0.0001598348       -0.0000442580
  H        -0.0007643755       -0.0017738680       -0.0008759922
  C        -0.0005585058       -0.0000380742        0.0002614315
  C         0.0002678707       -0.0001862779       -0.0001662993
  C        -0.0000528428        0.0000248882       -0.0004913311
  C        -0.0000178549        0.0000281851        0.0000870937
  H        -0.0014749923        0.0002447438       -0.0006327494
  C        -0.0000374965       -0.0001725627        0.0001704176
  C        -0.0001506426        0.0002029638       -0.0001201792
  H         0.0003019453        0.0011060410       -0.0008362156
  C        -0.0001111129        0.0004323786        0.0003231126
  H        -0.0003233942        0.0012114517       -0.0006052584
  H         0.0002609496       -0.0006105059        0.0001263852
  H        -0.0004522179        0.0001216117        0.0001244568
  C        -0.0000668914       -0.0000715723        0.0000061207
  C        -0.0000694086        0.0001214822        0.0002755312
  C        -0.0001954879        0.0000229879       -0.0002010708
  C        -0.0000305214       -0.0000279224        0.0001559906
  C         0.0000701479        0.0001750877        0.0003483367
  C        -0.0000504577        0.0002264106       -0.0000427199
  C        -0.0001870494       -0.0000090902       -0.0001952937
  H        -0.0013035575       -0.0001632556        0.0009746161
  H        -0.0007219656        0.0001240755        0.0015293613
  H        -0.0009048821       -0.0007363841        0.0009311792
  H        -0.0004273484        0.0004542076       -0.0003699643
  H         0.0008363699        0.0001978141        0.0000505303
  C        -0.0000057985       -0.0001719517        0.0004445992
  C         0.0000939756        0.0000282771       -0.0002532757
  C         0.0001709661       -0.0001348224       -0.0002409208
  C        -0.0001246478       -0.0000429957        0.0003345247
  H         0.0003178878        0.0002058276        0.0011686847
  C        -0.0001123685       -0.0004701651       -0.0000969678
  C         0.0001005144       -0.0001494069        0.0002372666
  H        -0.0007585375       -0.0004395767        0.0006351107
  C         0.0003813565        0.0000394458       -0.0002545750
  H        -0.0010817534        0.0008538679       -0.0001031944
  H         0.0000872688       -0.0007927356       -0.0000997652
  H         0.0007456721       -0.0012750536        0.0001369346
  C         0.0000508861        0.0001354956        0.0000235116
  C        -0.0000167488        0.0001857194       -0.0000129581
  C         0.0001224368       -0.0000755678        0.0001072063
  C         0.0000248115        0.0003497901        0.0002202215
  C        -0.0002801276       -0.0003663465       -0.0004995717
  C         0.0000316285        0.0000778979       -0.0000650278
  C         0.0002193853        0.0000858753       -0.0000316138
  H        -0.0001941919       -0.0007147998        0.0009087778
  H         0.0005863922        0.0002991409        0.0000546145
  H        -0.0001170180        0.0010689471        0.0001402154
  H         0.0008485016       -0.0013536756       -0.0008473911
  H         0.0005497139       -0.0004692286       -0.0003268611
  C         0.0001921094       -0.0001793588        0.0000389653
  C        -0.0001345420       -0.0002420824       -0.0001024836
  C        -0.0003137956       -0.0000210806       -0.0002726676
  C         0.0002097453       -0.0001708369       -0.0003694835
  H        -0.0013368542        0.0002554279        0.0000001771
  C         0.0005113662       -0.0002638314        0.0001779811
  C        -0.0000124752        0.0001223762        0.0001321328
  H         0.0008132088       -0.0003740834       -0.0003366044
  C         0.0001746474       -0.0000838936        0.0004008969
  H        -0.0002251099        0.0003770927        0.0009288394
  H         0.0007838533        0.0003789822       -0.0012437794
  H        -0.0004373173        0.0001912323        0.0001135407
  C        -0.0004177895        0.0001822927       -0.0000671854
  C         0.0001485008       -0.0001091206       -0.0000780329
  C         0.0001247398       -0.0001456081        0.0000636432
  C         0.0001760508        0.0002282933       -0.0002289519
  C         0.0001002045       -0.0002590014       -0.0000589798
  C         0.0002281503       -0.0000831152        0.0002368367
  C         0.0003205909        0.0002635767        0.0002247999
  H        -0.0002783134       -0.0000300924        0.0003438342
  H        -0.0000776724        0.0001566038       -0.0001569155
  H        -0.0006133463        0.0018520004       -0.0000933881
  H         0.0001918596        0.0012861625       -0.0010298765
  H         0.0003732915       -0.0002409144       -0.0001906101
  C        -0.0004872889        0.0001753945       -0.0001728070
  C        -0.0005284960        0.0002745320       -0.0000347938
  C         0.0002295762       -0.0001989907       -0.0000573820
  C         0.0003346408       -0.0000385696       -0.0003696201
  H         0.0000972545        0.0005201470        0.0013462747
  C         0.0000891683       -0.0001604301        0.0004208694
  C         0.0000765006       -0.0000566740       -0.0001058846
  H        -0.0003043365        0.0000798839        0.0005642939
  C        -0.0001659376        0.0000392530        0.0000051929
  H         0.0011491026        0.0004866485       -0.0013479832
  H         0.0011314781        0.0007309718       -0.0001330779
  H         0.0009653422        0.0001274901        0.0008619346
  C        -0.0000172551       -0.0000052000        0.0000532402
  C        -0.0001200240        0.0003292729       -0.0002575825
  C         0.0002996386       -0.0001148221        0.0000721834
  C         0.0000882417        0.0000622309       -0.0002131291
  C        -0.0004644289       -0.0002188792       -0.0001692773
  C        -0.0001802692       -0.0001205008        0.0002310933
  C         0.0003276163       -0.0001058089       -0.0000874923
  H         0.0001480872       -0.0017221746       -0.0004735996
  H        -0.0019320508       -0.0003027606       -0.0003926450
  H        -0.0010174023        0.0006933825        0.0003225222
  H        -0.0007805279       -0.0012801967        0.0006703009
  H         0.0000352777       -0.0008696818       -0.0006519444
  C        -0.0000512120        0.0001421361       -0.0002864184
  C        -0.0003064851       -0.0001848303        0.0002126089
  C        -0.0002294592       -0.0000740606       -0.0003568433
  C        -0.0000252084       -0.0001772170        0.0000838836
  H        -0.0005806285       -0.0008512621        0.0004598527
  C        -0.0001701391       -0.0001232390       -0.0000955024
  C        -0.0001347203       -0.0001482671        0.0001087485
  H         0.0009539963        0.0007443981        0.0007847726
  C         0.0002383044       -0.0002008704        0.0003019091
  H         0.0002907431        0.0001769274       -0.0002613573
  H         0.0000633279        0.0000000007        0.0017035422
  H         0.0011750800        0.0013840515       -0.0002122388
  C         0.0000293439       -0.0001882658       -0.0005710189
  C        -0.0001863028        0.0001915046       -0.0000254524
  C        -0.0000744196       -0.0001807227       -0.0000194622
  C         0.0001229218        0.0000693614       -0.0004888176
  C        -0.0000261226        0.0003997468        0.0000329107
  C        -0.0001682213       -0.0000796635       -0.0001638062
  C        -0.0001942005       -0.0002043619       -0.0002586021
  H         0.0009773147       -0.0009021720        0.0003596682
  H        -0.0000601689        0.0001597526        0.0006252407
  H        -0.0005581193       -0.0012700901        0.0013796601
  H         0.0009413363       -0.0015754294        0.0010269112
  H         0.0009071665       -0.0009010635       -0.0007665826
  C         0.0001605178        0.0002493221        0.0000302904
  C        -0.0001770266        0.0002203678       -0.0002059256
  C        -0.0000264495       -0.0001595909       -0.0002609164
  C         0.0002217666       -0.0000377251       -0.0003622943
  H         0.0003378476       -0.0007025259        0.0010934992
  C        -0.0000062085        0.0000232513        0.0000143589
  C        -0.0002216267       -0.0002808274        0.0003127635
  H        -0.0011822280       -0.0010766866        0.0002724355
  C         0.0001748109       -0.0000964282       -0.0004079045
  H         0.0010139488       -0.0013515615        0.0002439676
  H        -0.0002655566       -0.0001636375        0.0003576775
  H         0.0007710301        0.0003771368       -0.0011716760
  C        -0.0000305409        0.0000821759       -0.0003354422
  C         0.0002369183       -0.0001466727        0.0006550256
  C        -0.0000933525       -0.0001432650        0.0003436744
  C        -0.0000805477       -0.0000528907        0.0001495722
  C        -0.0000210912        0.0000329905       -0.0001238029
  C         0.0003129699       -0.0000338262       -0.0003518902
  C        -0.0000676917        0.0003173471       -0.0003588223
  H        -0.0003745763        0.0003144466       -0.0013234023
  H        -0.0009009253        0.0002441764       -0.0004543515
  H        -0.0004518187       -0.0002112155        0.0004109946
  H         0.0005395098        0.0000323639        0.0000174687
  H         0.0014547041        0.0002235800        0.0000953310
  C         0.0001389691        0.0000345863       -0.0000320565
  C        -0.0000161415        0.0000231338       -0.0004218043
  C        -0.0001309672        0.0003979050        0.0001414808
  C         0.0000202755       -0.0001093745        0.0003274462
  H        -0.0000471867       -0.0003519836       -0.0002334602
  C         0.0001443076       -0.0002025819       -0.0001209185
  C        -0.0002495009        0.0006768743       -0.0000364296
  H        -0.0002903707       -0.0015227169       -0.0003499258
  C         0.0003047158       -0.0003571458       -0.0000614843
  H        -0.0012021833        0.0001628314        0.0006867509
  H        -0.0008723783       -0.0005637008       -0.0009499804
  H        -0.0006543396        0.0003573321       -0.0000264639
  C         0.0004681449       -0.0000732099        0.0000628227
  C         0.0000384447        0.0001249102        0.0000139097
  C         0.0002432771        0.0001216353       -0.0001563632
  C        -0.0000838988        0.0000381322       -0.0002023495
  C        -0.0004130233        0.0005419722        0.0003610377
  C        -0.0002340228        0.0000241331        0.0003731923
  C         0.0002173349        0.0001228392       -0.0000045110
  H         0.0000776872        0.0008217187        0.0013136298
  H        -0.0001386372       -0.0000090064        0.0000745285
  H        -0.0014095667        0.0001270326       -0.0005017596
  H        -0.0000676433       -0.0004399760        0.0007615466
  H         0.0006512401       -0.0010199582        0.0001255066
  C        -0.0001739512        0.0004119623        0.0003900873
  C         0.0000568768       -0.0000543660       -0.0000612541
  C        -0.0000895272        0.0001897942        0.0001762999
  C         0.0004394599       -0.0004786621        0.0002652779
  H        -0.0003036991        0.0003125570       -0.0000117555
  C         0.0001359940        0.0001128036        0.0001298514
  C        -0.0000871378       -0.0002441772        0.0000692540
  H         0.0008542441        0.0001736996       -0.0005750174
  C        -0.0003000416       -0.0001808573        0.0001415242
  H         0.0006825175       -0.0009475604       -0.0000585018
  H        -0.0010580881        0.0006117751       -0.0008468345
  H        -0.0002950555       -0.0001026258        0.0015001077
  C        -0.0001542415       -0.0002152326        0.0003048750
  C        -0.0000003077        0.0001308857        0.0000918620
  C        -0.0000628936        0.0003313801        0.0001494555
  C        -0.0000145567        0.0002722377        0.0001122932
  C        -0.0005049405        0.0000217297        0.0000295339
  C         0.0001837277        0.0000949819        0.0000061785
  C         0.0002463773        0.0001399438       -0.0002156786
  H         0.0001943534       -0.0005105037       -0.0002079137
  H        -0.0014037984        0.0003640886       -0.0000671229
  H        -0.0001657969        0.0005089597        0.0003320360
  H        -0.0000549983       -0.0005749429        0.0002559702
  H        -0.0006201368        0.0005728475        0.0012925515
  C        -0.0000471420       -0.0002513561        0.0001828817
  C         0.0001072386        0.0001359714       -0.0001258818
  C         0.0001252353       -0.0000525871       -0.0000235949
  C        -0.0000511450        0.0001078844       -0.0000235658
  H         0.0004815152        0.0013519197        0.0008242157
  C         0.0002785004        0.0000689920       -0.0002031603
  C        -0.0000376024       -0.0001932725       -0.0000520432
  H         0.0004782046       -0.0001529657        0.0001276036
  C         0.0000861563       -0.0001136987        0.0003201326
  H         0.0005079536       -0.0009323379       -0.0000986210
  H        -0.0001692953       -0.0005174761        0.0004631007
  H         0.0004817309       -0.0001823017        0.0007964292
  C        -0.0002118404        0.0000244319        0.0003080596
  C        -0.0000881885       -0.0001296482        0.0001653605
  C         0.0004581030        0.0001256920        0.0001136739
  C         0.0000494046       -0.0003607392       -0.0002252279
  C         0.0000830208        0.0000257580       -0.0002129732
  C        -0.0002221376        0.0000216295        0.0000683750
  C        -0.0000321498        0.0002265088       -0.0002460331
  H        -0.0009998311        0.0008582973        0.0011694187
  H        -0.0001762929        0.0002517878       -0.0000193419
  H        -0.0000225309        0.0006712750        0.0006625379
  H         0.0001925920       -0.0004047751        0.0010104181
  H        -0.0000252501        0.0003032732       -0.0008923750
  C        -0.0000187465        0.0000040269        0.0005064039
  C         0.0000592380        0.0000766684       -0.0002081682
  C         0.0000865342       -0.0002165286        0.0000174721
  C        -0.0002019781       -0.0001040150        0.0001428382
  H         0.0000298488       -0.0000492947       -0.0007644244
  C        -0.0003468764        0.0001468348        0.0000072701
  C         0.0000513164        0.0000329501        0.0000276127
  H        -0.0001490299        0.0006180677       -0.0001800139
  C        -0.0000141437        0.0001056145       -0.0002524393
  H        -0.0010358785        0.0002589881        0.0002570360
  H         0.0002170425       -0.0008773794        0.0004454835
  H        -0.0006691163       -0.0009731917       -0.0002557955
  C        -0.0001073110       -0.0002436914       -0.0002986731
  C        -0.0001381801       -0.0002967728       -0.0001277793
  C         0.0000914417        0.0000533113        0.0000648658
  C        -0.0002506492       -0.0000275122        0.0000092532
  C        -0.0000134347       -0.0001581036        0.0001459525
  C        -0.0002230504        0.0003226975       -0.0001466532
  C         0.0005483327        0.0003865610       -0.0002940222
  H         0.0002377368       -0.0004081725        0.0001175645
  H         0.0002329509       -0.0001190024       -0.0000703575
  H         0.0001771540       -0.0009751237        0.0007511904
  H        -0.0006883346        0.0007290098       -0.0010057491
  H         0.0009223993        0.0011386880       -0.0006414535
  C         0.0002150902       -0.0004524880       -0.0002292455
  C        -0.0001901885        0.0000962463        0.0001694721
  C         0.0004207664       -0.0003393678        0.0003080818
  C        -0.0002369080       -0.0001673573        0.0000220168
  H        -0.0012720020        0.0004866364        0.0002136110
  C        -0.0001574679        0.0002681303        0.0004143065
  C        -0.0001206732        0.0000302502        0.0001844182
  H         0.0004210148       -0.0006244662       -0.0010557085
  C         0.0000494608        0.0000954703        0.0000798306
  H         0.0001110557       -0.0014329074       -0.0013252627
  H         0.0004107961       -0.0007169261       -0.0004049679
  H        -0.0003549591       -0.0006326168        0.0000087765
  C        -0.0000761968        0.0000959429       -0.0001500932
  C        -0.0001841010       -0.0002585128       -0.0003944539
  C        -0.0001209100        0.0000780915       -0.0001366689
  C        -0.0003990699       -0.0002079845        0.0000555545
  C         0.0000191018        0.0000217319        0.0001426612
  C        -0.0000924643       -0.0002226072       -0.0001922685
  C         0.0000334499       -0.0000804553       -0.0000087100
  H        -0.0015145842       -0.0010083839        0.0002555680
  H         0.0000504773       -0.0013740092        0.0003930488
  H         0.0010698778        0.0000216911        0.0003058108
  H         0.0001897811       -0.0008971098       -0.0003703264
  H        -0.0000930038        0.0003479950        0.0000879923
  C        -0.0001100427       -0.0000083849        0.0001745146
  C        -0.0000237365        0.0001350501        0.0000321563
  C         0.0000670989       -0.0004727880        0.0002536617
  C        -0.0002780649       -0.0001758887       -0.0000672261
  H         0.0014914269       -0.0005894602        0.0006912072
  C         0.0003152976        0.0001814474       -0.0001233035
  C        -0.0002884291        0.0000213365        0.0000733961
  H        -0.0017985875       -0.0002957068       -0.0005969690
  C         0.0002011920       -0.0002538371       -0.0003559747
  H         0.0005159354       -0.0000469483       -0.0003547665
  H        -0.0002276723       -0.0003575373       -0.0000579306
  H        -0.0000548389        0.0006688712        0.0003285244
  C        -0.0001664624        0.0003022281        0.0002037905
  C         0.0000645193        0.0000032213        0.0000926676
  C        -0.0001542237        0.0003937841        0.0002350847
  C         0.0001323243       -0.0001048270        0.0001012600
  C        -0.0002119006       -0.0004693641        0.0000856425
  C         0.0001256995        0.0001443569       -0.0000909660
  C        -0.0000240700        0.0001207176        0.0002074270
  H        -0.0001660335       -0.0016474655        0.0006605068
  H         0.0001458244        0.0003370095        0.0008137344
  H        -0.0000466699        0.0014700748        0.0008108484
  H         0.0001374890       -0.0021563769       -0.0012282194
  H         0.0012725046        0.0005587988       -0.0016176809
  C        -0.0000680679       -0.0000724656       -0.0002551195
  C         0.0002724704        0.0000440477        0.0000131307
  C         0.0004164178        0.0002397953        0.0000435196
  C        -0.0002703154       -0.0001100248        0.0000955234
  H         0.0019163802        0.0000722696       -0.0005369800
  C         0.0000623951       -0.0003162206        0.0000222077
  C         0.0000610147        0.0001960321        0.0002822072
  H         0.0007687393        0.0004657869       -0.0005208484
  C        -0.0000109498        0.0001547360       -0.0000390091
  H        -0.0003818791       -0.0001240601       -0.0003873019
  H        -0.0001909414        0.0004013885        0.0011465997
  H         0.0006261296       -0.0001403997        0.0004114551
  C        -0.0001348196       -0.0002100083       -0.0003162299
  C        -0.0000509648        0.0000458510        0.0002120600
  C        -0.0000219018        0.0000121631        0.0004896355
  C        -0.0001849296        0.0002460023       -0.0001756427
  C         0.0003857462       -0.0000486462       -0.0002154034
  C        -0.0000648820       -0.0001495436       -0.0000610296
  C         0.0002392812       -0.0000877871        0.0000937977
  H        -0.0002920434       -0.0002983698       -0.0007332732
  H         0.0013429944        0.0003507353       -0.0007381913
  H         0.0000135258        0.0002307909        0.0000257128
  H         0.0003919096       -0.0006091407       -0.0004546597
  H        -0.0003035457       -0.0002996869       -0.0011663238
  C         0.0002551946       -0.0001627292        0.0001218072
  C        -0.0000468193        0.0005032812        0.0002025462
  C         0.0004051548       -0.0002317021       -0.0001437556
  C        -0.0003673331        0.0001876371       -0.0001982542
  H         0.0004319924       -0.0003626194        0.0001732414
  C         0.0001860827        0.0000924572       -0.0001301617
  C         0.0002580587        0.0001138006       -0.0002156448
  H        -0.0001273712       -0.0000590418        0.0003197222
  C         0.0000858701       -0.0000755751        0.0000022891
  H         0.0002507306        0.0004469719        0.0003506907
  H         0.0001625908       -0.0001358209        0.0010375850
  H        -0.0004692013        0.0005712997        0.0001923379
  C        -0.0000404900       -0.0001493723       -0.0000875843
  C        -0.0000863455        0.0000640434        0.0001891438
  C        -0.0001644159       -0.0001446562        0.0001749396
  C         0.0002810118       -0.0001046318        0.0001739643