 DBCSR| Multiplication driver                                               XSMM
 DBCSR| Multrec recursion limit                                              512
 DBCSR| Multiplication stack size                                           1000
 DBCSR| Maximum elements for images                                    UNLIMITED
 DBCSR| Randmat seed                                                    12341313
 DBCSR| Multiplication size stacks                                             3


  **** **** ******  **  PROGRAM STARTED AT               2021-04-29 14:23:29.582
 ***** ** ***  *** **   PROGRAM STARTED ON               bulstake.phys.ucl.ac.uk
 **    ****   ******    PROGRAM STARTED BY                             sgiannini
 ***** **    ** ** **   PROGRAM PROCESS ID                                 12979
  **** **  *******  **  PROGRAM STARTED IN /scratch/sgiannini/REG_TEST_MERGING/3
                                           7-071a0540f1_code_extension_V3_ADJ/ru
                                           n-fssh-3NAP-3ANT-NFF-FE-CT-CR-C-inter

 CP2K| version string:                    CP2K version 4.0 (Development Version)
 CP2K| source code revision number:                                  git:1080fc1
 CP2K| cp2kflags: libint fftw3 libxc quip smm_dnn smm libxsmm libderiv_max_am1=5
 CP2K|             libint_max_am=6
 CP2K| is freely available from                            https://www.cp2k.org/
 CP2K| Program compiled at                          Thu 29 Apr 10:11:08 BST 2021
 CP2K| Program compiled on                               bulstake.phys.ucl.ac.uk
 CP2K| Program compiled for                                         local_hetero
 CP2K| Data directory path           /scratch/sgiannini/flavoured-cptk/cp2k/data
 CP2K| Input file name                                                   run.inp

 GLOBAL| Force Environment number                                              1
 GLOBAL| Basis set file name                                           POTENTIAL
 GLOBAL| MM Potential file name                                     MM_POTENTIAL
 GLOBAL| Coordinate file name                                       pos-init.xyz
 GLOBAL| Force Environment number                                              2
 GLOBAL| Basis set file name                                           POTENTIAL
 GLOBAL| MM Potential file name                                     MM_POTENTIAL
 GLOBAL| Coordinate file name                                       pos-init.xyz
 GLOBAL| Force Environment number                                              3
 GLOBAL| Basis set file name                                           POTENTIAL
 GLOBAL| MM Potential file name                                     MM_POTENTIAL
 GLOBAL| Coordinate file name                                       pos-init.xyz
 GLOBAL| Force Environment number                                              4
 GLOBAL| Basis set file name                                           POTENTIAL
 GLOBAL| MM Potential file name                                     MM_POTENTIAL
 GLOBAL| Coordinate file name                                       pos-init.xyz
 GLOBAL| Force Environment number                                              5
 GLOBAL| Basis set file name                                           POTENTIAL
 GLOBAL| MM Potential file name                                     MM_POTENTIAL
 GLOBAL| Coordinate file name                                       pos-init.xyz
 GLOBAL| Force Environment number                                              6
 GLOBAL| Basis set file name                                           POTENTIAL
 GLOBAL| MM Potential file name                                     MM_POTENTIAL
 GLOBAL| Coordinate file name                                       pos-init.xyz
 GLOBAL| Force Environment number                                              7
 GLOBAL| Basis set file name                                           POTENTIAL
 GLOBAL| MM Potential file name                                     MM_POTENTIAL
 GLOBAL| Coordinate file name                                       pos-init.xyz
 GLOBAL| Force Environment number                                              8
 GLOBAL| Basis set file name                                           POTENTIAL
 GLOBAL| MM Potential file name                                     MM_POTENTIAL
 GLOBAL| Coordinate file name                                       pos-init.xyz
 GLOBAL| Force Environment number                                              9
 GLOBAL| Basis set file name                                           POTENTIAL
 GLOBAL| MM Potential file name                                     MM_POTENTIAL
 GLOBAL| Coordinate file name                                       pos-init.xyz
 GLOBAL| Force Environment number                                             10
 GLOBAL| Basis set file name                                           POTENTIAL
 GLOBAL| MM Potential file name                                     MM_POTENTIAL
 GLOBAL| Coordinate file name                                       pos-init.xyz
 GLOBAL| Force Environment number                                             11
 GLOBAL| Basis set file name                                           POTENTIAL
 GLOBAL| MM Potential file name                                     MM_POTENTIAL
 GLOBAL| Coordinate file name                                       pos-init.xyz
 GLOBAL| Force Environment number                                             12
 GLOBAL| Basis set file name                                           POTENTIAL
 GLOBAL| MM Potential file name                                     MM_POTENTIAL
 GLOBAL| Coordinate file name                                       pos-init.xyz
 GLOBAL| Force Environment number                                             13
 GLOBAL| Basis set file name                                           POTENTIAL
 GLOBAL| MM Potential file name                                     MM_POTENTIAL
 GLOBAL| Coordinate file name                                       pos-init.xyz
 GLOBAL| Force Environment number                                             14
 GLOBAL| Basis set file name                                           POTENTIAL
 GLOBAL| MM Potential file name                                     MM_POTENTIAL
 GLOBAL| Coordinate file name                                       pos-init.xyz
 GLOBAL| Method name                                                        CP2K
 GLOBAL| Project name                                                        run
 GLOBAL| Preferred FFT library                                             FFTW3
 GLOBAL| Preferred diagonalization lib.                                       SL
 GLOBAL| Run type                                                             MD
 GLOBAL| All-to-all communication in single precision                          F
 GLOBAL| FFTs using library dependent lengths                                  F
 GLOBAL| Global print level                                                  LOW
 GLOBAL| Total number of message passing processes                             1
 GLOBAL| Number of threads for this process                                    1
 GLOBAL| This output is from process                                           0
 GLOBAL| CPU model name :  Intel(R) Xeon(R) CPU E5-2687W v4 @ 3.00GHz

 MEMORY| system memory details [Kb]
 MEMORY|                        rank 0           min           max       average
 MEMORY| MemTotal             65894336      65894336      65894336      65894336
 MEMORY| MemFree               6700216       6700216       6700216       6700216
 MEMORY| Buffers                  8744          8744          8744          8744
 MEMORY| Cached               40779408      40779408      40779408      40779408
 MEMORY| Slab                  3236724       3236724       3236724       3236724
 MEMORY| SReclaimable          2479316       2479316       2479316       2479316
 MEMORY| MemLikelyFree        49967684      49967684      49967684      49967684

 TOTAL NUMBER OF FORCE EVALS          14
 NOTE:n_subforce_eval          13
          ----------------------------------------------------------------------
 COLVARS| COLVAR INPUT INDEX:        1
 COLVARS| BOND          >>> POINTS:                                    1       2
 COLVARS| INFORMATION ON DEFINED GEOMETRICAL POINTS
 COLVARS|  POINT Nr.     1 OF TYPE: GEO_CENTER
 COLVARS|   ATOMS BUILDING THE GEOMETRICAL POINT
 COLVARS|   ATOM:         1
 COLVARS|   ATOM:         2
 COLVARS|   ATOM:         3
 COLVARS|   ATOM:        10
 COLVARS|   ATOM:        12
 COLVARS|   ATOM:         5
 COLVARS|  POINT Nr.     2 OF TYPE: FIX_POINT
 COLVARS|   XYZ POSITION OF FIXED POINT:       -0.000913   -0.004945    2.313156
          ----------------------------------------------------------------------
          ----------------------------------------------------------------------
 COLVARS| COLVAR INPUT INDEX:        2
 COLVARS| BOND          >>> POINTS:                                    1       2
 COLVARS| INFORMATION ON DEFINED GEOMETRICAL POINTS
 COLVARS|  POINT Nr.     1 OF TYPE: GEO_CENTER
 COLVARS|   ATOMS BUILDING THE GEOMETRICAL POINT
 COLVARS|   ATOM:         3
 COLVARS|   ATOM:         4
 COLVARS|   ATOM:        11
 COLVARS|   ATOM:        14
 COLVARS|   ATOM:        13
 COLVARS|   ATOM:        10
 COLVARS|  POINT Nr.     2 OF TYPE: FIX_POINT
 COLVARS|   XYZ POSITION OF FIXED POINT:        0.000913    0.004945   -2.313156
          ----------------------------------------------------------------------
          ----------------------------------------------------------------------
 COLVARS| COLVAR INPUT INDEX:        3
 COLVARS| BOND          >>> POINTS:                                    1       2
 COLVARS| INFORMATION ON DEFINED GEOMETRICAL POINTS
 COLVARS|  POINT Nr.     1 OF TYPE: GEO_CENTER
 COLVARS|   ATOMS BUILDING THE GEOMETRICAL POINT
 COLVARS|   ATOM:        19
 COLVARS|   ATOM:        20
 COLVARS|   ATOM:        21
 COLVARS|   ATOM:        28
 COLVARS|   ATOM:        30
 COLVARS|   ATOM:        23
 COLVARS|  POINT Nr.     2 OF TYPE: FIX_POINT
 COLVARS|   XYZ POSITION OF FIXED POINT:        9.447737   -0.004945    2.313156
          ----------------------------------------------------------------------
          ----------------------------------------------------------------------
 COLVARS| COLVAR INPUT INDEX:        4
 COLVARS| BOND          >>> POINTS:                                    1       2
 COLVARS| INFORMATION ON DEFINED GEOMETRICAL POINTS
 COLVARS|  POINT Nr.     1 OF TYPE: GEO_CENTER
 COLVARS|   ATOMS BUILDING THE GEOMETRICAL POINT
 COLVARS|   ATOM:        21
 COLVARS|   ATOM:        22
 COLVARS|   ATOM:        29
 COLVARS|   ATOM:        32
 COLVARS|   ATOM:        31
 COLVARS|   ATOM:        28
 COLVARS|  POINT Nr.     2 OF TYPE: FIX_POINT
 COLVARS|   XYZ POSITION OF FIXED POINT:        9.449563    0.004945   -2.313156
          ----------------------------------------------------------------------
          ----------------------------------------------------------------------
 COLVARS| COLVAR INPUT INDEX:        5
 COLVARS| BOND          >>> POINTS:                                    1       2
 COLVARS| INFORMATION ON DEFINED GEOMETRICAL POINTS
 COLVARS|  POINT Nr.     1 OF TYPE: GEO_CENTER
 COLVARS|   ATOMS BUILDING THE GEOMETRICAL POINT
 COLVARS|   ATOM:        37
 COLVARS|   ATOM:        38
 COLVARS|   ATOM:        39
 COLVARS|   ATOM:        46
 COLVARS|   ATOM:        48
 COLVARS|   ATOM:        41
 COLVARS|  POINT Nr.     2 OF TYPE: FIX_POINT
 COLVARS|   XYZ POSITION OF FIXED POINT:       18.896387   -0.004945    2.313156
          ----------------------------------------------------------------------
          ----------------------------------------------------------------------
 COLVARS| COLVAR INPUT INDEX:        6
 COLVARS| BOND          >>> POINTS:                                    1       2
 COLVARS| INFORMATION ON DEFINED GEOMETRICAL POINTS
 COLVARS|  POINT Nr.     1 OF TYPE: GEO_CENTER
 COLVARS|   ATOMS BUILDING THE GEOMETRICAL POINT
 COLVARS|   ATOM:        39
 COLVARS|   ATOM:        40
 COLVARS|   ATOM:        47
 COLVARS|   ATOM:        50
 COLVARS|   ATOM:        49
 COLVARS|   ATOM:        46
 COLVARS|  POINT Nr.     2 OF TYPE: FIX_POINT
 COLVARS|   XYZ POSITION OF FIXED POINT:       18.898213    0.004945   -2.313156
          ----------------------------------------------------------------------
          ----------------------------------------------------------------------
 COLVARS| COLVAR INPUT INDEX:        7
 COLVARS| BOND          >>> POINTS:                                    1       2
 COLVARS| INFORMATION ON DEFINED GEOMETRICAL POINTS
 COLVARS|  POINT Nr.     1 OF TYPE: GEO_CENTER
 COLVARS|   ATOMS BUILDING THE GEOMETRICAL POINT
 COLVARS|   ATOM:        55
 COLVARS|   ATOM:        56
 COLVARS|   ATOM:        57
 COLVARS|   ATOM:        59
 COLVARS|   ATOM:        60
 COLVARS|   ATOM:        61
 COLVARS|  POINT Nr.     2 OF TYPE: FIX_POINT
 COLVARS|   XYZ POSITION OF FIXED POINT:       28.351777   -0.009071    4.632012
          ----------------------------------------------------------------------
          ----------------------------------------------------------------------
 COLVARS| COLVAR INPUT INDEX:        8
 COLVARS| BOND          >>> POINTS:                                    1       2
 COLVARS| INFORMATION ON DEFINED GEOMETRICAL POINTS
 COLVARS|  POINT Nr.     1 OF TYPE: GEO_CENTER
 COLVARS|   ATOMS BUILDING THE GEOMETRICAL POINT
 COLVARS|   ATOM:        67
 COLVARS|   ATOM:        70
 COLVARS|   ATOM:        73
 COLVARS|   ATOM:        75
 COLVARS|   ATOM:        72
 COLVARS|   ATOM:        69
 COLVARS|  POINT Nr.     2 OF TYPE: FIX_POINT
 COLVARS|   XYZ POSITION OF FIXED POINT:       28.340123    0.009071   -4.632012
          ----------------------------------------------------------------------
          ----------------------------------------------------------------------
 COLVARS| COLVAR INPUT INDEX:        9
 COLVARS| BOND          >>> POINTS:                                    1       2
 COLVARS| INFORMATION ON DEFINED GEOMETRICAL POINTS
 COLVARS|  POINT Nr.     1 OF TYPE: GEO_CENTER
 COLVARS|   ATOMS BUILDING THE GEOMETRICAL POINT
 COLVARS|   ATOM:        79
 COLVARS|   ATOM:        80
 COLVARS|   ATOM:        81
 COLVARS|   ATOM:        83
 COLVARS|   ATOM:        84
 COLVARS|   ATOM:        85
 COLVARS|  POINT Nr.     2 OF TYPE: FIX_POINT
 COLVARS|   XYZ POSITION OF FIXED POINT:       37.800427   -0.009071    4.632012
          ----------------------------------------------------------------------
          ----------------------------------------------------------------------
 COLVARS| COLVAR INPUT INDEX:       10
 COLVARS| BOND          >>> POINTS:                                    1       2
 COLVARS| INFORMATION ON DEFINED GEOMETRICAL POINTS
 COLVARS|  POINT Nr.     1 OF TYPE: GEO_CENTER
 COLVARS|   ATOMS BUILDING THE GEOMETRICAL POINT
 COLVARS|   ATOM:        91
 COLVARS|   ATOM:        94
 COLVARS|   ATOM:        97
 COLVARS|   ATOM:        99
 COLVARS|   ATOM:        96
 COLVARS|   ATOM:        93
 COLVARS|  POINT Nr.     2 OF TYPE: FIX_POINT
 COLVARS|   XYZ POSITION OF FIXED POINT:       37.788773    0.009071   -4.632012
          ----------------------------------------------------------------------
          ----------------------------------------------------------------------
 COLVARS| COLVAR INPUT INDEX:       11
 COLVARS| BOND          >>> POINTS:                                    1       2
 COLVARS| INFORMATION ON DEFINED GEOMETRICAL POINTS
 COLVARS|  POINT Nr.     1 OF TYPE: GEO_CENTER
 COLVARS|   ATOMS BUILDING THE GEOMETRICAL POINT
 COLVARS|   ATOM:       103
 COLVARS|   ATOM:       104
 COLVARS|   ATOM:       105
 COLVARS|   ATOM:       107
 COLVARS|   ATOM:       108
 COLVARS|   ATOM:       109
 COLVARS|  POINT Nr.     2 OF TYPE: FIX_POINT
 COLVARS|   XYZ POSITION OF FIXED POINT:       47.249077   -0.009071    4.632012
          ----------------------------------------------------------------------
          ----------------------------------------------------------------------
 COLVARS| COLVAR INPUT INDEX:       12
 COLVARS| BOND          >>> POINTS:                                    1       2
 COLVARS| INFORMATION ON DEFINED GEOMETRICAL POINTS
 COLVARS|  POINT Nr.     1 OF TYPE: GEO_CENTER
 COLVARS|   ATOMS BUILDING THE GEOMETRICAL POINT
 COLVARS|   ATOM:       115
 COLVARS|   ATOM:       118
 COLVARS|   ATOM:       121
 COLVARS|   ATOM:       123
 COLVARS|   ATOM:       120
 COLVARS|   ATOM:       117
 COLVARS|  POINT Nr.     2 OF TYPE: FIX_POINT
 COLVARS|   XYZ POSITION OF FIXED POINT:       47.237423    0.009071   -4.632012
          ----------------------------------------------------------------------
 RESTRAINT| Active restraint on COLLECTIVE section Nr.     1. K [a.u.]= 0.005000
 RESTRAINT| Active restraint on COLLECTIVE section Nr.     2. K [a.u.]= 0.005000
 RESTRAINT| Active restraint on COLLECTIVE section Nr.     3. K [a.u.]= 0.005000
 RESTRAINT| Active restraint on COLLECTIVE section Nr.     4. K [a.u.]= 0.005000
 RESTRAINT| Active restraint on COLLECTIVE section Nr.     5. K [a.u.]= 0.005000
 RESTRAINT| Active restraint on COLLECTIVE section Nr.     6. K [a.u.]= 0.005000
 RESTRAINT| Active restraint on COLLECTIVE section Nr.     7. K [a.u.]= 0.005000
 RESTRAINT| Active restraint on COLLECTIVE section Nr.     8. K [a.u.]= 0.005000
 RESTRAINT| Active restraint on COLLECTIVE section Nr.     9. K [a.u.]= 0.005000
 RESTRAINT| Active restraint on COLLECTIVE section Nr.    10. K [a.u.]= 0.005000
 RESTRAINT| Active restraint on COLLECTIVE section Nr.    11. K [a.u.]= 0.005000
 RESTRAINT| Active restraint on COLLECTIVE section Nr.    12. K [a.u.]= 0.005000
 DECOMP =  F
 DECOMP =  F
 DECOMP =  F
 DECOMP =  F
 DECOMP =  F
 DECOMP =  F
 DECOMP =  F
 DECOMP =  F
 DECOMP =  F
 DECOMP =  F
 DECOMP =  F
 DECOMP =  F
 DECOMP =  F

 MD| Molecular Dynamics Protocol 
 MD| Ensemble Type                                                           NVE
 MD| Number of Time Steps                                                    200
 MD| Time Step [fs]                                                         0.10
 MD| Temperature [K]                                                      300.00
 MD| Temperature tolerance [K]                                              0.00
 MD| Constraints activated 
 MD| Tolerance for shake                                              0.1000E-05
 MD| Print MD information every                                        1 step(s)
 MD| File type     Print frequency[steps]                             File names
 MD| Coordinates          200                                      run-pos-1.xyz
 MD| Velocities             1                                      run-vel-1.xyz
 MD| Energies               1                                         run-1.ener
 MD| Dump                 200                                      run-1.restart

 ROT| Rotational Analysis Info 
 ROT| Principal axes and moments of inertia in atomic units:
 ROT|                                1                 2                 3
 ROT| EIGENVALUES            0.147348159E+13   0.181154206E+13   0.188503186E+13
 ROT|      X                     0.725533885      -0.686324004      -0.050595880
 ROT|      Y                     0.081160793       0.012326244       0.996624799
 ROT|      Z                     0.683383865       0.727191464      -0.064645708
 ROT| Numer of Rotovibrational vectors:     6

 Calculation of degrees of freedom
                                                      Number of atoms:       248
                                 Number of Intramolecular constraints:         0
                                 Number of Intermolecular constraints:         0
                                  Invariants(translation + rotations):         3
                                                   Degrees of freedom:       741


 Restraints Information
                                  Number of Intramolecular restraints:         0
                                  Number of Intermolecular restraints:        12

 *** WARNING in motion/thermostat/thermostat_methods.F:280 :: Thermostat ***
 *** for Particles has been defined but the ensemble provided does not   ***
 *** support thermostat for Particles! Ignoring thermostat input.        ***

 ************************** Velocities initialization **************************
 Initial Temperature                                                    333.01 K
 COM velocity:           -0.000023072435      0.000013407134     -0.000010397276
 *******************************************************************************

 FIRST CALL: force_env_calc_energy_force
 RESTART_KEY F
 ACTIVE STATE           3
 FOBSH| ACTIVE STATE =            3

 ENERGY| Total FORCE_EVAL ( MIXED ) energy (a.u.):             0.327895703157796

 STEP NUMBER                  =            0
 CPU TIME [s]                 =    0.0000000000000000        0.0000000000000000     

 MD_ENERGIES| Initialization proceeding


 ******************************** GO CP2K GO! **********************************
 INITIAL POTENTIAL ENERGY[hartree]     =                      0.327895703158E+00
 INITIAL KINETIC ENERGY[hartree]       =                      0.393255336332E+00
 INITIAL TEMPERATURE[K]                =                                 335.169
 INITIAL VOLUME[bohr^3]                =                      0.145764026995E+07
 INITIAL CELL LNTHS[bohr]   =      0.1133836E+03   0.1133836E+03   0.1133836E+03
 INITIAL CELL ANGLS[deg]    =      0.9000000E+02   0.9000000E+02   0.9000000E+02
 ******************************** GO CP2K GO! **********************************
 FOBSH| Put former active state           3 in new active state           3
 RANDOM_NUMBER_HOPPING_PROBA  0.42506174147428072     
 FOBSH| ACTIVE STATE =            3

 ENERGY| Total FORCE_EVAL ( MIXED ) energy (a.u.):             0.328005923717930

 FOBSH| CASE1: no hop and no trivial crossing
 ENTER integrator.F
 STEP NUMBER                  =            1
 CPU TIME [s]                 =    3.2286144793033600E-002   3.2286144793033600E-002

 *******************************************************************************
 ENSEMBLE TYPE                =                                              NVE
 STEP NUMBER                  =                                                1
 TIME [fs]                    =                                         0.100000
 CONSERVED QUANTITY [hartree] =                               0.721151210222E+00

                                              INSTANTANEOUS             AVERAGES
 CPU TIME [s]                 =                        0.03                 0.03
 ENERGY DRIFT PER ATOM [K]    =          0.217390514909E-03   0.000000000000E+00
 POTENTIAL ENERGY[hartree]    =          0.328005923718E+00   0.328005923718E+00
 KINETIC ENERGY [hartree]     =          0.393145286504E+00   0.393145286504E+00
 TEMPERATURE [K]              =                     335.075              335.075
 *******************************************************************************

 FOBSH| Put former active state           3 in new active state           3
 RANDOM_NUMBER_HOPPING_PROBA  0.57253296000111287     
 FOBSH| ACTIVE STATE =            3

 ENERGY| Total FORCE_EVAL ( MIXED ) energy (a.u.):             0.328074430203222

 FOBSH| CASE1: no hop and no trivial crossing
 ENTER integrator.F
 STEP NUMBER                  =            2
 CPU TIME [s]                 =    8.7042450904846191E-003   2.0495194941759109E-002

 *******************************************************************************
 ENSEMBLE TYPE                =                                              NVE
 STEP NUMBER                  =                                                2
 TIME [fs]                    =                                         0.200000
 CONSERVED QUANTITY [hartree] =                               0.721151319101E+00

                                              INSTANTANEOUS             AVERAGES
 CPU TIME [s]                 =                        0.01                 0.02
 ENERGY DRIFT PER ATOM [K]    =          0.356024458376E-03   0.178012229188E-03
 POTENTIAL ENERGY[hartree]    =          0.328074430203E+00   0.328040176961E+00
 KINETIC ENERGY [hartree]     =          0.393076888897E+00   0.393111087701E+00
 TEMPERATURE [K]              =                     335.017              335.046
 *******************************************************************************

 FOBSH| Put former active state           3 in new active state           3
 RANDOM_NUMBER_HOPPING_PROBA  0.98601443508896114     
 FOBSH| ACTIVE STATE =            3

 ENERGY| Total FORCE_EVAL ( MIXED ) energy (a.u.):             0.328099614695867

 FOBSH| CASE1: no hop and no trivial crossing
 ENTER integrator.F
 STEP NUMBER                  =            3
 CPU TIME [s]                 =    8.7383594363927841E-003   1.6576249773303665E-002

 *******************************************************************************
 ENSEMBLE TYPE                =                                              NVE
 STEP NUMBER                  =                                                3
 TIME [fs]                    =                                         0.300000
 CONSERVED QUANTITY [hartree] =                               0.721151367642E+00

                                              INSTANTANEOUS             AVERAGES
 CPU TIME [s]                 =                        0.01                 0.02
 ENERGY DRIFT PER ATOM [K]    =          0.417831345971E-03   0.257951934782E-03
 POTENTIAL ENERGY[hartree]    =          0.328099614696E+00   0.328059989539E+00
 KINETIC ENERGY [hartree]     =          0.393051752946E+00   0.393091309449E+00
 TEMPERATURE [K]              =                     334.995              335.029
 *******************************************************************************

 FOBSH| Reordering: for state          10 old index was          11 with overlap   1.0000000000000000      and former   0.0000000000000000     
 FOBSH| Reordering: for state          11 old index was          10 with overlap  0.99980957023497186      and former   0.0000000000000000     
 FOBSH| New map:            1           2           3           4           5           6           7           8           9          11          10          12          13
 FOBSH| Put former active state           3 in new active state           3
 RANDOM_NUMBER_HOPPING_PROBA  0.95254159069821498     
 FOBSH| ACTIVE STATE =            3

 ENERGY| Total FORCE_EVAL ( MIXED ) energy (a.u.):             0.328080810747882

 FOBSH| CASE1: no hop and no trivial crossing
 ENTER integrator.F
 STEP NUMBER                  =            4
 CPU TIME [s]                 =    8.7560545653104782E-003   1.4621200971305369E-002

 *******************************************************************************
 ENSEMBLE TYPE                =                                              NVE
 STEP NUMBER                  =                                                4
 TIME [fs]                    =                                         0.400000
 CONSERVED QUANTITY [hartree] =                               0.721151358302E+00

                                              INSTANTANEOUS             AVERAGES
 CPU TIME [s]                 =                        0.01                 0.01
 ENERGY DRIFT PER ATOM [K]    =          0.405938945579E-03   0.294948687481E-03
 POTENTIAL ENERGY[hartree]    =          0.328080810748E+00   0.328065194841E+00
 KINETIC ENERGY [hartree]     =          0.393070547554E+00   0.393086118975E+00
 TEMPERATURE [K]              =                     335.011              335.025
 *******************************************************************************

 FOBSH| Put former active state           3 in new active state           3
 RANDOM_NUMBER_HOPPING_PROBA  0.89801537869200088     
 FOBSH| ACTIVE STATE =            3

 ENERGY| Total FORCE_EVAL ( MIXED ) energy (a.u.):             0.328018261429159

 FOBSH| CASE1: no hop and no trivial crossing
 ENTER integrator.F
 STEP NUMBER                  =            5
 CPU TIME [s]                 =    8.6697712540626526E-003   1.3430915027856828E-002

 *******************************************************************************
 ENSEMBLE TYPE                =                                              NVE
 STEP NUMBER                  =                                                5
 TIME [fs]                    =                                         0.500000
 CONSERVED QUANTITY [hartree] =                               0.721151293155E+00

                                              INSTANTANEOUS             AVERAGES
 CPU TIME [s]                 =                        0.01                 0.01
 ENERGY DRIFT PER ATOM [K]    =          0.322987776308E-03   0.300556505247E-03
 POTENTIAL ENERGY[hartree]    =          0.328018261429E+00   0.328055808159E+00
 KINETIC ENERGY [hartree]     =          0.393133031726E+00   0.393095501525E+00
 TEMPERATURE [K]              =                     335.065              335.033
 *******************************************************************************

 FOBSH| Put former active state           3 in new active state           3
 RANDOM_NUMBER_HOPPING_PROBA  0.71660996951509126     
 FOBSH| ACTIVE STATE =            3

 ENERGY| Total FORCE_EVAL ( MIXED ) energy (a.u.):             0.327913077571255

 FOBSH| CASE1: no hop and no trivial crossing
 ENTER integrator.F
 STEP NUMBER                  =            6
 CPU TIME [s]                 =    8.6542963981628418E-003   1.2634811922907829E-002

 *******************************************************************************
 ENSEMBLE TYPE                =                                              NVE
 STEP NUMBER                  =                                                6
 TIME [fs]                    =                                         0.600000
 CONSERVED QUANTITY [hartree] =                               0.721151176370E+00

                                              INSTANTANEOUS             AVERAGES
 CPU TIME [s]                 =                        0.01                 0.01
 ENERGY DRIFT PER ATOM [K]    =          0.174288138940E-03   0.279511777529E-03
 POTENTIAL ENERGY[hartree]    =          0.327913077571E+00   0.328032019728E+00
 KINETIC ENERGY [hartree]     =          0.393238098799E+00   0.393119267738E+00
 TEMPERATURE [K]              =                     335.154              335.053
 *******************************************************************************

 FOBSH| Put former active state           3 in new active state           3
 RANDOM_NUMBER_HOPPING_PROBA  0.87535406930224191     
 FOBSH| ACTIVE STATE =            3

 ENERGY| Total FORCE_EVAL ( MIXED ) energy (a.u.):             0.327767179773134

 FOBSH| *** WARNING: Projection to avoid spurious transfer get lambda =    1.0020400830963290      ***
 FOBSH| CASE1: no hop and no trivial crossing
 ENTER integrator.F
 STEP NUMBER                  =            7
 CPU TIME [s]                 =    8.6492411792278290E-003   1.2065444673810686E-002

 *******************************************************************************
 ENSEMBLE TYPE                =                                              NVE
 STEP NUMBER                  =                                                7
 TIME [fs]                    =                                         0.700000
 CONSERVED QUANTITY [hartree] =                               0.721151011971E+00

                                              INSTANTANEOUS             AVERAGES
 CPU TIME [s]                 =                        0.01                 0.01
 ENERGY DRIFT PER ATOM [K]    =         -0.350387358102E-04   0.234575989909E-03
 POTENTIAL ENERGY[hartree]    =          0.327767179773E+00   0.327994185448E+00
 KINETIC ENERGY [hartree]     =          0.393383832198E+00   0.393157062661E+00
 TEMPERATURE [K]              =                     335.278              335.085
 *******************************************************************************

 FOBSH| Put former active state           3 in new active state           3
 RANDOM_NUMBER_HOPPING_PROBA  0.91330135729319484     
 FOBSH| ACTIVE STATE =            3

 ENERGY| Total FORCE_EVAL ( MIXED ) energy (a.u.):             0.327583238956401

 FOBSH| *** WARNING: Projection to avoid spurious transfer get lambda =    1.0023468417450485      ***
 FOBSH| CASE1: no hop and no trivial crossing
 ENTER integrator.F
 STEP NUMBER                  =            8
 CPU TIME [s]                 =    8.6628478020429611E-003   1.1640120064839721E-002

 *******************************************************************************
 ENSEMBLE TYPE                =                                              NVE
 STEP NUMBER                  =                                                8
 TIME [fs]                    =                                         0.800000
 CONSERVED QUANTITY [hartree] =                               0.721150804796E+00

                                              INSTANTANEOUS             AVERAGES
 CPU TIME [s]                 =                        0.01                 0.01
 ENERGY DRIFT PER ATOM [K]    =         -0.298832550276E-03   0.167899922386E-03
 POTENTIAL ENERGY[hartree]    =          0.327583238956E+00   0.327942817137E+00
 KINETIC ENERGY [hartree]     =          0.393567565839E+00   0.393208375558E+00
 TEMPERATURE [K]              =                     335.435              335.129
 *******************************************************************************

 FOBSH| Put former active state           3 in new active state           3
 RANDOM_NUMBER_HOPPING_PROBA  0.62352110461620380     
 FOBSH| ACTIVE STATE =            3

 ENERGY| Total FORCE_EVAL ( MIXED ) energy (a.u.):             0.327364605523214

 FOBSH| *** WARNING: Projection to avoid spurious transfer get lambda =    1.0026849237549673      ***
 FOBSH| CASE1: no hop and no trivial crossing
 ENTER integrator.F
 STEP NUMBER                  =            9
 CPU TIME [s]                 =    8.6649898439645767E-003   1.1309550040298037E-002

 *******************************************************************************
 ENSEMBLE TYPE                =                                              NVE
 STEP NUMBER                  =                                                9
 TIME [fs]                    =                                         0.900000
 CONSERVED QUANTITY [hartree] =                               0.721150559588E+00

                                              INSTANTANEOUS             AVERAGES
 CPU TIME [s]                 =                        0.01                 0.01
 ENERGY DRIFT PER ATOM [K]    =         -0.611052028373E-03   0.813497056350E-04
 POTENTIAL ENERGY[hartree]    =          0.327364605523E+00   0.327878571402E+00
 KINETIC ENERGY [hartree]     =          0.393785954064E+00   0.393272550948E+00
 TEMPERATURE [K]              =                     335.621              335.184
 *******************************************************************************

 FOBSH| Put former active state           3 in new active state           3
 RANDOM_NUMBER_HOPPING_PROBA  0.52456615215860303     
 FOBSH| ACTIVE STATE =            3

 ENERGY| Total FORCE_EVAL ( MIXED ) energy (a.u.):             0.327115232684349

 FOBSH| *** WARNING: Projection to avoid spurious transfer get lambda =    1.0030541853209129      ***
 FOBSH| CASE1: no hop and no trivial crossing
 ENTER integrator.F
 STEP NUMBER                  =           10
 CPU TIME [s]                 =    8.6910538375377655E-003   1.1047700420022011E-002

 *******************************************************************************
 ENSEMBLE TYPE                =                                              NVE
 STEP NUMBER                  =                                               10
 TIME [fs]                    =                                         1.000000
 CONSERVED QUANTITY [hartree] =                               0.721150281523E+00

                                              INSTANTANEOUS             AVERAGES
 CPU TIME [s]                 =                        0.01                 0.01
 ENERGY DRIFT PER ATOM [K]    =         -0.965107628576E-03  -0.232960277862E-04
 POTENTIAL ENERGY[hartree]    =          0.327115232684E+00   0.327802237530E+00
 KINETIC ENERGY [hartree]     =          0.394035048839E+00   0.393348800737E+00
 TEMPERATURE [K]              =                     335.833              335.249
 *******************************************************************************

 FOBSH| Put former active state           3 in new active state           3
 RANDOM_NUMBER_HOPPING_PROBA  0.82463783945997038     
 FOBSH| ACTIVE STATE =            3

 ENERGY| Total FORCE_EVAL ( MIXED ) energy (a.u.):             0.326839596340456

 FOBSH| *** WARNING: Projection to avoid spurious transfer get lambda =    1.0034537060215090      ***
 FOBSH| CASE1: no hop and no trivial crossing
 ENTER integrator.F
 STEP NUMBER                  =           11
 CPU TIME [s]                 =    8.6836237460374832E-003   1.0832784358750690E-002

 *******************************************************************************
 ENSEMBLE TYPE                =                                              NVE
 STEP NUMBER                  =                                               11
 TIME [fs]                    =                                         1.100000
 CONSERVED QUANTITY [hartree] =                               0.721149975961E+00

                                              INSTANTANEOUS             AVERAGES
 CPU TIME [s]                 =                        0.01                 0.01
 ENERGY DRIFT PER ATOM [K]    =         -0.135417449055E-02  -0.144284978946E-03
 POTENTIAL ENERGY[hartree]    =          0.326839596340E+00   0.327714724695E+00
 KINETIC ENERGY [hartree]     =          0.394310379621E+00   0.393436216999E+00
 TEMPERATURE [K]              =                     336.068              335.323
 *******************************************************************************

 FOBSH| Put former active state           3 in new active state           3
 RANDOM_NUMBER_HOPPING_PROBA  0.10919677156790358     
 FOBSH| ACTIVE STATE =            3

 ENERGY| Total FORCE_EVAL ( MIXED ) energy (a.u.):             0.326542611155368

 FOBSH| CASE1: no hop and no trivial crossing
 ENTER integrator.F
 STEP NUMBER                  =           12
 CPU TIME [s]                 =    8.6875408887863159E-003   1.0654014069586992E-002

 *******************************************************************************
 ENSEMBLE TYPE                =                                              NVE
 STEP NUMBER                  =                                               12
 TIME [fs]                    =                                         1.200000
 CONSERVED QUANTITY [hartree] =                               0.721149648378E+00

                                              INSTANTANEOUS             AVERAGES
 CPU TIME [s]                 =                        0.01                 0.01
 ENERGY DRIFT PER ATOM [K]    =         -0.177128190166E-02  -0.279868055839E-03
 POTENTIAL ENERGY[hartree]    =          0.326542611155E+00   0.327617048567E+00
 KINETIC ENERGY [hartree]     =          0.394607037222E+00   0.393533785351E+00
 TEMPERATURE [K]              =                     336.321              335.406
 *******************************************************************************

 FOBSH| Put former active state           3 in new active state           3
 RANDOM_NUMBER_HOPPING_PROBA  0.45507176864308491     
 FOBSH| ACTIVE STATE =            3

 ENERGY| Total FORCE_EVAL ( MIXED ) energy (a.u.):             0.326229543055575

 FOBSH| CASE1: no hop and no trivial crossing
 ENTER integrator.F
 STEP NUMBER                  =           13
 CPU TIME [s]                 =    8.7505318224430084E-003   1.0507592358268225E-002

 *******************************************************************************
 ENSEMBLE TYPE                =                                              NVE
 STEP NUMBER                  =                                               13
 TIME [fs]                    =                                         1.300000
 CONSERVED QUANTITY [hartree] =                               0.721149304682E+00

                                              INSTANTANEOUS             AVERAGES
 CPU TIME [s]                 =                        0.01                 0.01
 ENERGY DRIFT PER ATOM [K]    =         -0.220890486051E-02  -0.428255502352E-03
 POTENTIAL ENERGY[hartree]    =          0.326229543056E+00   0.327510317373E+00
 KINETIC ENERGY [hartree]     =          0.394919761626E+00   0.393640398910E+00
 TEMPERATURE [K]              =                     336.587              335.497
 *******************************************************************************

 FOBSH| Put former active state           3 in new active state           3
 RANDOM_NUMBER_HOPPING_PROBA  0.69851938874740926     
 FOBSH| ACTIVE STATE =            3

 ENERGY| Total FORCE_EVAL ( MIXED ) energy (a.u.):             0.325905917361365

 FOBSH| CASE1: no hop and no trivial crossing
 ENTER integrator.F
 STEP NUMBER                  =           14
 CPU TIME [s]                 =    8.7470803409814835E-003   1.0381841499890602E-002

 *******************************************************************************
 ENSEMBLE TYPE                =                                              NVE
 STEP NUMBER                  =                                               14
 TIME [fs]                    =                                         1.400000
 CONSERVED QUANTITY [hartree] =                               0.721148950571E+00

                                              INSTANTANEOUS             AVERAGES
 CPU TIME [s]                 =                        0.01                 0.01
 ENERGY DRIFT PER ATOM [K]    =         -0.265978823026E-02  -0.587650697202E-03
 POTENTIAL ENERGY[hartree]    =          0.325905917361E+00   0.327395717373E+00
 KINETIC ENERGY [hartree]     =          0.395243033210E+00   0.393754872789E+00
 TEMPERATURE [K]              =                     336.863              335.595
 *******************************************************************************

 FOBSH| Reordering: for state           9 old index was          10 with overlap   1.0000000000000000      and former   0.0000000000000000     
 FOBSH| Reordering: for state          10 old index was           9 with overlap  0.99999949349251327      and former   0.0000000000000000     
 FOBSH| New map:            1           2           3           4           5           6           7           8          10           9          11          12          13
 FOBSH| Put former active state           3 in new active state           3
 RANDOM_NUMBER_HOPPING_PROBA  0.22173039222134316     
 FOBSH| ACTIVE STATE =            3

 ENERGY| Total FORCE_EVAL ( MIXED ) energy (a.u.):             0.325577427617774

 FOBSH| CASE1: no hop and no trivial crossing
 ENTER integrator.F
 STEP NUMBER                  =           15
 CPU TIME [s]                 =    8.7242312729358673E-003   1.0271334151426953E-002

 *******************************************************************************
 ENSEMBLE TYPE                =                                              NVE
 STEP NUMBER                  =                                               15
 TIME [fs]                    =                                         1.500000
 CONSERVED QUANTITY [hartree] =                               0.721148591881E+00

                                              INSTANTANEOUS             AVERAGES
 CPU TIME [s]                 =                        0.01                 0.01
 ENERGY DRIFT PER ATOM [K]    =         -0.311650316376E-02  -0.756240861640E-03
 POTENTIAL ENERGY[hartree]    =          0.325577427618E+00   0.327274498056E+00
 KINETIC ENERGY [hartree]     =          0.395571164263E+00   0.393875958887E+00
 TEMPERATURE [K]              =                     337.143              335.698
 *******************************************************************************

 FOBSH| Put former active state           3 in new active state           3
 RANDOM_NUMBER_HOPPING_PROBA  0.84849448094304003     
 FOBSH| ACTIVE STATE =            3

 ENERGY| Total FORCE_EVAL ( MIXED ) energy (a.u.):             0.325249843714590

 FOBSH| CASE1: no hop and no trivial crossing
 ENTER integrator.F
 STEP NUMBER                  =           16
 CPU TIME [s]                 =    8.7225809693336487E-003   1.0174537077546121E-002

 *******************************************************************************
 ENSEMBLE TYPE                =                                              NVE
 STEP NUMBER                  =                                               16
 TIME [fs]                    =                                         1.600000
 CONSERVED QUANTITY [hartree] =                               0.721148234277E+00

                                              INSTANTANEOUS             AVERAGES
 CPU TIME [s]                 =                        0.01                 0.01
 ENERGY DRIFT PER ATOM [K]    =         -0.357183449217E-02  -0.932215463548E-03
 POTENTIAL ENERGY[hartree]    =          0.325249843715E+00   0.327147957159E+00
 KINETIC ENERGY [hartree]     =          0.395898390563E+00   0.394002360867E+00
 TEMPERATURE [K]              =                     337.422              335.806
 *******************************************************************************

 FOBSH| Put former active state           3 in new active state           3
 RANDOM_NUMBER_HOPPING_PROBA  0.83049142284836064     
 FOBSH| ACTIVE STATE =            3

 ENERGY| Total FORCE_EVAL ( MIXED ) energy (a.u.):             0.324928921527689

 FOBSH| CASE1: no hop and no trivial crossing
 ENTER integrator.F
 STEP NUMBER                  =           17
 CPU TIME [s]                 =    8.6766500025987625E-003   1.0086426073137453E-002

 *******************************************************************************
 ENSEMBLE TYPE                =                                              NVE
 STEP NUMBER                  =                                               17
 TIME [fs]                    =                                         1.700000
 CONSERVED QUANTITY [hartree] =                               0.721147883246E+00

                                              INSTANTANEOUS             AVERAGES
 CPU TIME [s]                 =                        0.01                 0.01
 ENERGY DRIFT PER ATOM [K]    =         -0.401879765663E-02  -0.111377912196E-02
 POTENTIAL ENERGY[hartree]    =          0.324928921528E+00   0.327017425651E+00
 KINETIC ENERGY [hartree]     =          0.396218961718E+00   0.394132749152E+00
 TEMPERATURE [K]              =                     337.695              335.917
 *******************************************************************************

 FOBSH| Put former active state           3 in new active state           3
 RANDOM_NUMBER_HOPPING_PROBA   3.5835056671335318E-002
 FOBSH| ACTIVE STATE =            3

 ENERGY| Total FORCE_EVAL ( MIXED ) energy (a.u.):             0.324620315362839

 FOBSH| CASE1: no hop and no trivial crossing
 ENTER integrator.F
 STEP NUMBER                  =           18
 CPU TIME [s]                 =    8.6347870528697968E-003   1.0005779460900361E-002

 *******************************************************************************
 ENSEMBLE TYPE                =                                              NVE
 STEP NUMBER                  =                                               18
 TIME [fs]                    =                                         1.800000
 CONSERVED QUANTITY [hartree] =                               0.721147543979E+00

                                              INSTANTANEOUS             AVERAGES
 CPU TIME [s]                 =                        0.01                 0.01
 ENERGY DRIFT PER ATOM [K]    =         -0.445078107981E-02  -0.129916811962E-02
 POTENTIAL ENERGY[hartree]    =          0.324620315363E+00   0.326884252858E+00
 KINETIC ENERGY [hartree]     =          0.396527228616E+00   0.394265775789E+00
 TEMPERATURE [K]              =                     337.957              336.030
 *******************************************************************************

 FOBSH| Reordering: for state          10 old index was          11 with overlap -0.99996802088717363      and former   0.0000000000000000     
 FOBSH| Reordering: for state          11 old index was          10 with overlap  0.99999955456835099      and former   0.0000000000000000     
 FOBSH| New map:            1           2           3           4           5           6           7           8           9          11          10          12          13
 FOBSH| Put former active state           3 in new active state           3
 RANDOM_NUMBER_HOPPING_PROBA  0.12588627338044925     
 FOBSH| ACTIVE STATE =            3

 ENERGY| Total FORCE_EVAL ( MIXED ) energy (a.u.):             0.324329494271954

 FOBSH| CASE1: no hop and no trivial crossing
 ENTER integrator.F
 STEP NUMBER                  =           19
 CPU TIME [s]                 =    8.7061859667301178E-003   9.9373798033124527E-003

 *******************************************************************************
 ENSEMBLE TYPE                =                                              NVE
 STEP NUMBER                  =                                               19
 TIME [fs]                    =                                         1.900000
 CONSERVED QUANTITY [hartree] =                               0.721147222216E+00

                                              INSTANTANEOUS             AVERAGES
 CPU TIME [s]                 =                        0.01                 0.01
 ENERGY DRIFT PER ATOM [K]    =         -0.486047658615E-02  -0.148660540733E-02
 POTENTIAL ENERGY[hartree]    =          0.324329494272E+00   0.326749791879E+00
 KINETIC ENERGY [hartree]     =          0.396817727944E+00   0.394400089061E+00
 TEMPERATURE [K]              =                     338.205              336.145
 *******************************************************************************

 FOBSH| Put former active state           3 in new active state           3
 RANDOM_NUMBER_HOPPING_PROBA  0.62234509350913103     
 FOBSH| ACTIVE STATE =            3

 ENERGY| Total FORCE_EVAL ( MIXED ) energy (a.u.):             0.324061661524760

 FOBSH| CASE1: no hop and no trivial crossing
 ENTER integrator.F
 STEP NUMBER                  =           20
 CPU TIME [s]                 =    8.6802449077367783E-003   9.8745230585336689E-003

 *******************************************************************************
 ENSEMBLE TYPE                =                                              NVE
 STEP NUMBER                  =                                               20
 TIME [fs]                    =                                         2.000000
 CONSERVED QUANTITY [hartree] =                               0.721146920768E+00

                                              INSTANTANEOUS             AVERAGES
 CPU TIME [s]                 =                        0.01                 0.01
 ENERGY DRIFT PER ATOM [K]    =         -0.524430614961E-02  -0.167449044445E-02
 POTENTIAL ENERGY[hartree]    =          0.324061661525E+00   0.326615385362E+00
 KINETIC ENERGY [hartree]     =          0.397085259243E+00   0.394534347570E+00
 TEMPERATURE [K]              =                     338.433              336.259
 *******************************************************************************

 FOBSH| Put former active state           3 in new active state           3
 RANDOM_NUMBER_HOPPING_PROBA  0.38080180208356468     
 FOBSH| ACTIVE STATE =            3

 ENERGY| Total FORCE_EVAL ( MIXED ) energy (a.u.):             0.323821685513952

 FOBSH| CASE1: no hop and no trivial crossing
 ENTER integrator.F
 STEP NUMBER                  =           21
 CPU TIME [s]                 =    8.6605418473482132E-003   9.8167144294295985E-003

 *******************************************************************************
 ENSEMBLE TYPE                =                                              NVE
 STEP NUMBER                  =                                               21
 TIME [fs]                    =                                         2.100000
 CONSERVED QUANTITY [hartree] =                               0.721146644949E+00

                                              INSTANTANEOUS             AVERAGES
 CPU TIME [s]                 =                        0.01                 0.01
 ENERGY DRIFT PER ATOM [K]    =         -0.559550220115E-02  -0.186120529001E-02
 POTENTIAL ENERGY[hartree]    =          0.323821685514E+00   0.326482352036E+00
 KINETIC ENERGY [hartree]     =          0.397324959435E+00   0.394667233849E+00
 TEMPERATURE [K]              =                     338.637              336.372
 *******************************************************************************

 FOBSH| Put former active state           3 in new active state           3
 RANDOM_NUMBER_HOPPING_PROBA  0.71971403474465934     
 FOBSH| ACTIVE STATE =            3

 ENERGY| Total FORCE_EVAL ( MIXED ) energy (a.u.):             0.323614021860048

 FOBSH| CASE1: no hop and no trivial crossing
 ENTER integrator.F
 STEP NUMBER                  =           22
 CPU TIME [s]                 =    8.7235812097787857E-003   9.7670265558091069E-003

 *******************************************************************************
 ENSEMBLE TYPE                =                                              NVE
 STEP NUMBER                  =                                               22
 TIME [fs]                    =                                         2.200000
 CONSERVED QUANTITY [hartree] =                               0.721146399641E+00

                                              INSTANTANEOUS             AVERAGES
 CPU TIME [s]                 =                        0.01                 0.01
 ENERGY DRIFT PER ATOM [K]    =         -0.590784870056E-02  -0.204514362685E-02
 POTENTIAL ENERGY[hartree]    =          0.323614021860E+00   0.326351973391E+00
 KINETIC ENERGY [hartree]     =          0.397532377781E+00   0.394797467664E+00
 TEMPERATURE [K]              =                     338.814              336.483
 *******************************************************************************

 FOBSH| Put former active state           3 in new active state           3
 RANDOM_NUMBER_HOPPING_PROBA  0.32085847941659479     
 FOBSH| ACTIVE STATE =            3

 ENERGY| Total FORCE_EVAL ( MIXED ) energy (a.u.):             0.323442642210059

 FOBSH| CASE1: no hop and no trivial crossing
 ENTER integrator.F
 STEP NUMBER                  =           23
 CPU TIME [s]                 =    8.7058600038290024E-003   9.7208888796360589E-003

 *******************************************************************************
 ENSEMBLE TYPE                =                                              NVE
 STEP NUMBER                  =                                               23
 TIME [fs]                    =                                         2.300000
 CONSERVED QUANTITY [hartree] =                               0.721146188506E+00

                                              INSTANTANEOUS             AVERAGES
 CPU TIME [s]                 =                        0.01                 0.01
 ENERGY DRIFT PER ATOM [K]    =         -0.617668403594E-02  -0.222477581855E-02
 POTENTIAL ENERGY[hartree]    =          0.323442642210E+00   0.326225480731E+00
 KINETIC ENERGY [hartree]     =          0.397703546296E+00   0.394923818909E+00
 TEMPERATURE [K]              =                     338.960              336.591
 *******************************************************************************

 FOBSH| Put former active state           3 in new active state           3
 RANDOM_NUMBER_HOPPING_PROBA  0.79374972942749600     
 FOBSH| ACTIVE STATE =            3

 ENERGY| Total FORCE_EVAL ( MIXED ) energy (a.u.):             0.323310961755256

 FOBSH| CASE1: no hop and no trivial crossing
 ENTER integrator.F
 STEP NUMBER                  =           24
 CPU TIME [s]                 =    8.6713489145040512E-003   9.6771580477555581E-003

 *******************************************************************************
 ENSEMBLE TYPE                =                                              NVE
 STEP NUMBER                  =                                               24
 TIME [fs]                    =                                         2.400000
 CONSERVED QUANTITY [hartree] =                               0.721146016727E+00

                                              INSTANTANEOUS             AVERAGES
 CPU TIME [s]                 =                        0.01                 0.01
 ENERGY DRIFT PER ATOM [K]    =         -0.639540794324E-02  -0.239855215708E-02
 POTENTIAL ENERGY[hartree]    =          0.323310961755E+00   0.326104042441E+00
 KINETIC ENERGY [hartree]     =          0.397835054972E+00   0.395045120412E+00
 TEMPERATURE [K]              =                     339.072              336.694
 *******************************************************************************

 FOBSH| Put former active state           3 in new active state           3
 RANDOM_NUMBER_HOPPING_PROBA  0.93432885556025480     
 FOBSH| ACTIVE STATE =            3

 ENERGY| Total FORCE_EVAL ( MIXED ) energy (a.u.):             0.323221763498320

 FOBSH| CASE1: no hop and no trivial crossing
 ENTER integrator.F
 STEP NUMBER                  =           25
 CPU TIME [s]                 =    8.6807049810886383E-003   9.6372999250888807E-003

 *******************************************************************************
 ENSEMBLE TYPE                =                                              NVE
 STEP NUMBER                  =                                               25
 TIME [fs]                    =                                         2.500000
 CONSERVED QUANTITY [hartree] =                               0.721145889005E+00

                                              INSTANTANEOUS             AVERAGES
 CPU TIME [s]                 =                        0.01                 0.01
 ENERGY DRIFT PER ATOM [K]    =         -0.655803401219E-02  -0.256493143128E-02
 POTENTIAL ENERGY[hartree]    =          0.323221763498E+00   0.325988751283E+00
 KINETIC ENERGY [hartree]     =          0.397924125507E+00   0.395160280615E+00
 TEMPERATURE [K]              =                     339.148              336.792
 *******************************************************************************

 FOBSH| Put former active state           3 in new active state           3
 RANDOM_NUMBER_HOPPING_PROBA  0.73068427736459529     
 FOBSH| ACTIVE STATE =            3

 ENERGY| Total FORCE_EVAL ( MIXED ) energy (a.u.):             0.323177138462867

 FOBSH| CASE1: no hop and no trivial crossing
 ENTER integrator.F
 STEP NUMBER                  =           26
 CPU TIME [s]                 =    8.7425261735916138E-003   9.6028855500312933E-003

 *******************************************************************************
 ENSEMBLE TYPE                =                                              NVE
 STEP NUMBER                  =                                               26
 TIME [fs]                    =                                         2.600000
 CONSERVED QUANTITY [hartree] =                               0.721145806616E+00

                                              INSTANTANEOUS             AVERAGES
 CPU TIME [s]                 =                        0.01                 0.01
 ENERGY DRIFT PER ATOM [K]    =         -0.666293913283E-02  -0.272254711211E-02
 POTENTIAL ENERGY[hartree]    =          0.323177138463E+00   0.325880612328E+00
 KINETIC ENERGY [hartree]     =          0.397968668153E+00   0.395268295521E+00
 TEMPERATURE [K]              =                     339.186              336.884
 *******************************************************************************

 FOBSH| Put former active state           3 in new active state           3
 RANDOM_NUMBER_HOPPING_PROBA   5.2447597475047292E-002
 FOBSH| ACTIVE STATE =            3

 ENERGY| Total FORCE_EVAL ( MIXED ) energy (a.u.):             0.323178459166377

 FOBSH| CASE1: no hop and no trivial crossing
 ENTER integrator.F
 STEP NUMBER                  =           27
 CPU TIME [s]                 =    8.7543874979019165E-003   9.5714596962487228E-003

 *******************************************************************************
 ENSEMBLE TYPE                =                                              NVE
 STEP NUMBER                  =                                               27
 TIME [fs]                    =                                         2.700000
 CONSERVED QUANTITY [hartree] =                               0.721145768804E+00

                                              INSTANTANEOUS             AVERAGES
 CPU TIME [s]                 =                        0.01                 0.01
 ENERGY DRIFT PER ATOM [K]    =         -0.671108406633E-02  -0.287027070301E-02
 POTENTIAL ENERGY[hartree]    =          0.323178459166E+00   0.325780532582E+00
 KINETIC ENERGY [hartree]     =          0.397967309638E+00   0.395368259006E+00
 TEMPERATURE [K]              =                     339.185              336.970
 *******************************************************************************

 FOBSH| Put former active state           3 in new active state           3
 RANDOM_NUMBER_HOPPING_PROBA  0.22220662730256527     
 FOBSH| ACTIVE STATE =            3

 ENERGY| Total FORCE_EVAL ( MIXED ) energy (a.u.):             0.323226392369396

 FOBSH| CASE1: no hop and no trivial crossing
 ENTER integrator.F
 STEP NUMBER                  =           28
 CPU TIME [s]                 =    8.7070968002080917E-003   9.5405895928187007E-003

 *******************************************************************************
 ENSEMBLE TYPE                =                                              NVE
 STEP NUMBER                  =                                               28
 TIME [fs]                    =                                         2.800000
 CONSERVED QUANTITY [hartree] =                               0.721145772865E+00

                                              INSTANTANEOUS             AVERAGES
 CPU TIME [s]                 =                        0.01                 0.01
 ENERGY DRIFT PER ATOM [K]    =         -0.670591311866E-02  -0.300725793214E-02
 POTENTIAL ENERGY[hartree]    =          0.323226392369E+00   0.325689313288E+00
 KINETIC ENERGY [hartree]     =          0.397919380496E+00   0.395459370488E+00
 TEMPERATURE [K]              =                     339.144              337.047
 *******************************************************************************

 FOBSH| Put former active state           3 in new active state           3
 RANDOM_NUMBER_HOPPING_PROBA  0.82568653783360502     
 FOBSH| ACTIVE STATE =            3

 ENERGY| Total FORCE_EVAL ( MIXED ) energy (a.u.):             0.323320943566872

 FOBSH| CASE1: no hop and no trivial crossing
 ENTER integrator.F
 STEP NUMBER                  =           29
 CPU TIME [s]                 =    8.6613483726978302E-003   9.5102709300559120E-003

 *******************************************************************************
 ENSEMBLE TYPE                =                                              NVE
 STEP NUMBER                  =                                               29
 TIME [fs]                    =                                         2.900000
 CONSERVED QUANTITY [hartree] =                               0.721145813001E+00

                                              INSTANTANEOUS             AVERAGES
 CPU TIME [s]                 =                        0.01                 0.01
 ENERGY DRIFT PER ATOM [K]    =         -0.665480871009E-02  -0.313303554517E-02
 POTENTIAL ENERGY[hartree]    =          0.323320943567E+00   0.325607645367E+00
 KINETIC ENERGY [hartree]     =          0.397824869434E+00   0.395540939417E+00
 TEMPERATURE [K]              =                     339.063              337.117
 *******************************************************************************

 FOBSH| Put former active state           3 in new active state           3
 RANDOM_NUMBER_HOPPING_PROBA  0.38444406491805933     
 FOBSH| ACTIVE STATE =            3

 ENERGY| Total FORCE_EVAL ( MIXED ) energy (a.u.):             0.323461515307915

 FOBSH| CASE1: no hop and no trivial crossing
 ENTER integrator.F
 STEP NUMBER                  =           30
 CPU TIME [s]                 =    8.6673628538846970E-003   9.4821739941835376E-003

 *******************************************************************************
 ENSEMBLE TYPE                =                                              NVE
 STEP NUMBER                  =                                               30
 TIME [fs]                    =                                         3.000000
 CONSERVED QUANTITY [hartree] =                               0.721145889853E+00

                                              INSTANTANEOUS             AVERAGES
 CPU TIME [s]                 =                        0.01                 0.01
 ENERGY DRIFT PER ATOM [K]    =         -0.655695437942E-02  -0.324716617298E-02
 POTENTIAL ENERGY[hartree]    =          0.323461515308E+00   0.325536107698E+00
 KINETIC ENERGY [hartree]     =          0.397684374545E+00   0.395612387255E+00
 TEMPERATURE [K]              =                     338.944              337.178
 *******************************************************************************

 FOBSH| Put former active state           3 in new active state           3
 RANDOM_NUMBER_HOPPING_PROBA  0.19950001465529277     
 FOBSH| ACTIVE STATE =            3

 ENERGY| Total FORCE_EVAL ( MIXED ) energy (a.u.):             0.323646924960887

 FOBSH| CASE1: no hop and no trivial crossing
 ENTER integrator.F
 STEP NUMBER                  =           31
 CPU TIME [s]                 =    8.6722131818532944E-003   9.4560462260438512E-003

 *******************************************************************************
 ENSEMBLE TYPE                =                                              NVE
 STEP NUMBER                  =                                               31
 TIME [fs]                    =                                         3.100000
 CONSERVED QUANTITY [hartree] =                               0.721146002181E+00

                                              INSTANTANEOUS             AVERAGES
 CPU TIME [s]                 =                        0.01                 0.01
 ENERGY DRIFT PER ATOM [K]    =         -0.641392895493E-02  -0.334931981111E-02
 POTENTIAL ENERGY[hartree]    =          0.323646924961E+00   0.325475166320E+00
 KINETIC ENERGY [hartree]     =          0.397499077220E+00   0.395673248222E+00
 TEMPERATURE [K]              =                     338.786              337.230
 *******************************************************************************

 FOBSH| Put former active state           3 in new active state           3
 RANDOM_NUMBER_HOPPING_PROBA  0.18323923021409660     
 FOBSH| ACTIVE STATE =            3

 ENERGY| Total FORCE_EVAL ( MIXED ) energy (a.u.):             0.323875417826988

 FOBSH| CASE1: no hop and no trivial crossing
 ENTER integrator.F
 STEP NUMBER                  =           32
 CPU TIME [s]                 =    8.6408313363790512E-003   9.4305707607418264E-003

 *******************************************************************************
 ENSEMBLE TYPE                =                                              NVE
 STEP NUMBER                  =                                               32
 TIME [fs]                    =                                         3.200000
 CONSERVED QUANTITY [hartree] =                               0.721146149156E+00

                                              INSTANTANEOUS             AVERAGES
 CPU TIME [s]                 =                        0.01                 0.01
 ENERGY DRIFT PER ATOM [K]    =         -0.622678825606E-02  -0.343924070001E-02
 POTENTIAL ENERGY[hartree]    =          0.323875417827E+00   0.325425174179E+00
 KINETIC ENERGY [hartree]     =          0.397270731329E+00   0.395723169569E+00
 TEMPERATURE [K]              =                     338.591              337.272
 *******************************************************************************

 FOBSH| Put former active state           3 in new active state           3
 RANDOM_NUMBER_HOPPING_PROBA  0.19344440224497481     
 FOBSH| ACTIVE STATE =            3

 ENERGY| Total FORCE_EVAL ( MIXED ) energy (a.u.):             0.324144668599300

 FOBSH| CASE1: no hop and no trivial crossing
 ENTER integrator.F
 STEP NUMBER                  =           33
 CPU TIME [s]                 =    8.6826141923666000E-003   9.4079054101850017E-003

 *******************************************************************************
 ENSEMBLE TYPE                =                                              NVE
 STEP NUMBER                  =                                               33
 TIME [fs]                    =                                         3.300000
 CONSERVED QUANTITY [hartree] =                               0.721146331106E+00

                                              INSTANTANEOUS             AVERAGES
 CPU TIME [s]                 =                        0.01                 0.01
 ENERGY DRIFT PER ATOM [K]    =         -0.599511399136E-02  -0.351669140581E-02
 POTENTIAL ENERGY[hartree]    =          0.324144668599E+00   0.325386370980E+00
 KINETIC ENERGY [hartree]     =          0.397001662506E+00   0.395761911779E+00
 TEMPERATURE [K]              =                     338.362              337.305
 *******************************************************************************

 FOBSH| Put former active state           3 in new active state           3
 RANDOM_NUMBER_HOPPING_PROBA   9.8347387615651052E-002
 FOBSH| ACTIVE STATE =            3

 ENERGY| Total FORCE_EVAL ( MIXED ) energy (a.u.):             0.324451777502637

 FOBSH| CASE1: no hop and no trivial crossing
 ENTER integrator.F
 STEP NUMBER                  =           34
 CPU TIME [s]                 =    8.7056346237659454E-003   9.3872503870550284E-003

 *******************************************************************************
 ENSEMBLE TYPE                =                                              NVE
 STEP NUMBER                  =                                               34
 TIME [fs]                    =                                         3.400000
 CONSERVED QUANTITY [hartree] =                               0.721146547823E+00

                                              INSTANTANEOUS             AVERAGES
 CPU TIME [s]                 =                        0.01                 0.01
 ENERGY DRIFT PER ATOM [K]    =         -0.571917069174E-02  -0.358147020834E-02
 POTENTIAL ENERGY[hartree]    =          0.324451777503E+00   0.325358882936E+00
 KINETIC ENERGY [hartree]     =          0.396694770321E+00   0.395789348795E+00
 TEMPERATURE [K]              =                     338.100              337.329
 *******************************************************************************

 FOBSH| Put former active state           3 in new active state           3
 RANDOM_NUMBER_HOPPING_PROBA  0.84195369182302804     
 FOBSH| ACTIVE STATE =            3

 ENERGY| Total FORCE_EVAL ( MIXED ) energy (a.u.):             0.324793286024169

 FOBSH| CASE1: no hop and no trivial crossing
 ENTER integrator.F
 STEP NUMBER                  =           35
 CPU TIME [s]                 =    8.7333079427480698E-003   9.3685663172176879E-003

 *******************************************************************************
 ENSEMBLE TYPE                =                                              NVE
 STEP NUMBER                  =                                               35
 TIME [fs]                    =                                         3.500000
 CONSERVED QUANTITY [hartree] =                               0.721146796225E+00

                                              INSTANTANEOUS             AVERAGES
 CPU TIME [s]                 =                        0.01                 0.01
 ENERGY DRIFT PER ATOM [K]    =         -0.540288447330E-02  -0.363351061591E-02
 POTENTIAL ENERGY[hartree]    =          0.324793286024E+00   0.325342723025E+00
 KINETIC ENERGY [hartree]     =          0.396353510201E+00   0.395805467692E+00
 TEMPERATURE [K]              =                     337.809              337.342
 *******************************************************************************

 FOBSH| Put former active state           3 in new active state           3
 RANDOM_NUMBER_HOPPING_PROBA  0.83000150617219359     
 FOBSH| ACTIVE STATE =            3

 ENERGY| Total FORCE_EVAL ( MIXED ) energy (a.u.):             0.325165210801861

 FOBSH| CASE1: no hop and no trivial crossing
 ENTER integrator.F
 STEP NUMBER                  =           36
 CPU TIME [s]                 =    8.7600667029619217E-003   9.3516635501550271E-003

 *******************************************************************************
 ENSEMBLE TYPE                =                                              NVE
 STEP NUMBER                  =                                               36
 TIME [fs]                    =                                         3.600000
 CONSERVED QUANTITY [hartree] =                               0.721147073310E+00

                                              INSTANTANEOUS             AVERAGES
 CPU TIME [s]                 =                        0.01                 0.01
 ENERGY DRIFT PER ATOM [K]    =         -0.505007709370E-02  -0.367285968474E-02
 POTENTIAL ENERGY[hartree]    =          0.325165210802E+00   0.325337792129E+00
 KINETIC ENERGY [hartree]     =          0.395981862508E+00   0.395810367548E+00
 TEMPERATURE [K]              =                     337.493              337.347
 *******************************************************************************

 FOBSH| Put former active state           3 in new active state           3
 RANDOM_NUMBER_HOPPING_PROBA  0.54636093313877343     
 FOBSH| ACTIVE STATE =            3

 ENERGY| Total FORCE_EVAL ( MIXED ) energy (a.u.):             0.325563091412845

 FOBSH| CASE1: no hop and no trivial crossing
 ENTER integrator.F
 STEP NUMBER                  =           37
 CPU TIME [s]                 =    8.7436009198427200E-003   9.3352294250114518E-003

 *******************************************************************************
 ENSEMBLE TYPE                =                                              NVE
 STEP NUMBER                  =                                               37
 TIME [fs]                    =                                         3.700000
 CONSERVED QUANTITY [hartree] =                               0.721147374107E+00

                                              INSTANTANEOUS             AVERAGES
 CPU TIME [s]                 =                        0.01                 0.01
 ENERGY DRIFT PER ATOM [K]    =         -0.466707672924E-02  -0.369973041567E-02
 POTENTIAL ENERGY[hartree]    =          0.325563091413E+00   0.325343881299E+00
 KINETIC ENERGY [hartree]     =          0.395584282694E+00   0.395804257147E+00
 TEMPERATURE [K]              =                     337.154              337.341
 *******************************************************************************

 FOBSH| Put former active state           3 in new active state           3
 RANDOM_NUMBER_HOPPING_PROBA  0.77675724950747294     
 FOBSH| ACTIVE STATE =            3

 ENERGY| Total FORCE_EVAL ( MIXED ) energy (a.u.):             0.325982071326950

 FOBSH| CASE1: no hop and no trivial crossing
 ENTER integrator.F
 STEP NUMBER                  =           38
 CPU TIME [s]                 =    8.7631773203611374E-003   9.3201754222574946E-003

 *******************************************************************************
 ENSEMBLE TYPE                =                                              NVE
 STEP NUMBER                  =                                               38
 TIME [fs]                    =                                         3.800000
 CONSERVED QUANTITY [hartree] =                               0.721147691681E+00

                                              INSTANTANEOUS             AVERAGES
 CPU TIME [s]                 =                        0.01                 0.01
 ENERGY DRIFT PER ATOM [K]    =         -0.426271379245E-02  -0.371454576769E-02
 POTENTIAL ENERGY[hartree]    =          0.325982071327E+00   0.325360675774E+00
 KINETIC ENERGY [hartree]     =          0.395165620354E+00   0.395787450915E+00
 TEMPERATURE [K]              =                     336.797              337.327
 *******************************************************************************

 FOBSH| Put former active state           3 in new active state           3
 RANDOM_NUMBER_HOPPING_PROBA  0.88457025424358748     
 FOBSH| ACTIVE STATE =            3

 ENERGY| Total FORCE_EVAL ( MIXED ) energy (a.u.):             0.326417002607681

 FOBSH| CASE1: no hop and no trivial crossing
 ENTER integrator.F
 STEP NUMBER                  =           39
 CPU TIME [s]                 =    8.7580326944589615E-003   9.3057615061600957E-003

 *******************************************************************************
 ENSEMBLE TYPE                =                                              NVE
 STEP NUMBER                  =                                               39
 TIME [fs]                    =                                         3.900000
 CONSERVED QUANTITY [hartree] =                               0.721148017442E+00

                                              INSTANTANEOUS             AVERAGES
 CPU TIME [s]                 =                        0.01                 0.01
 ENERGY DRIFT PER ATOM [K]    =         -0.384792706336E-02  -0.371796580091E-02
 POTENTIAL ENERGY[hartree]    =          0.326417002608E+00   0.325387761077E+00
 KINETIC ENERGY [hartree]     =          0.394731014835E+00   0.395760362811E+00
 TEMPERATURE [K]              =                     336.427              337.304
 *******************************************************************************

 FOBSH| Put former active state           3 in new active state           3
 RANDOM_NUMBER_HOPPING_PROBA  0.17037134348350566     
 FOBSH| ACTIVE STATE =            3

 ENERGY| Total FORCE_EVAL ( MIXED ) energy (a.u.):             0.326862568693590

 FOBSH| CASE1: no hop and no trivial crossing
 ENTER integrator.F
 STEP NUMBER                  =           40
 CPU TIME [s]                 =    8.6755827069282532E-003   9.2900070361793003E-003

 *******************************************************************************
 ENSEMBLE TYPE                =                                              NVE
 STEP NUMBER                  =                                               40
 TIME [fs]                    =                                         4.000000
 CONSERVED QUANTITY [hartree] =                               0.721148344982E+00

                                              INSTANTANEOUS             AVERAGES
[...]
 STEP NUMBER                  =          191
 CPU TIME [s]                 =    8.7005607783794403E-003   9.0145817055752205E-003

 *******************************************************************************
 ENSEMBLE TYPE                =                                              NVE
 STEP NUMBER                  =                                              191
 TIME [fs]                    =                                        19.100000
 CONSERVED QUANTITY [hartree] =                               0.721118700966E+00

                                              INSTANTANEOUS             AVERAGES
 CPU TIME [s]                 =                        0.01                 0.01
 ENERGY DRIFT PER ATOM [K]    =         -0.411761523375E-01  -0.138781237311E-01
 POTENTIAL ENERGY[hartree]    =          0.326944771888E+00   0.334272452462E+00
 KINETIC ENERGY [hartree]     =          0.394173929078E+00   0.386867688457E+00
 TEMPERATURE [K]              =                     335.952              329.725
 *******************************************************************************

 FOBSH| Put former active state           1 in new active state           1
 RANDOM_NUMBER_HOPPING_PROBA  0.68417013629977330     
 FOBSH| ACTIVE STATE =            1

 ENERGY| Total FORCE_EVAL ( MIXED ) energy (a.u.):             0.327108474838967

 FOBSH| CASE1: no hop and no trivial crossing
 ENTER integrator.F
 STEP NUMBER                  =          192
 CPU TIME [s]                 =    8.5730589926242828E-003   9.0122821081119343E-003

 *******************************************************************************
 ENSEMBLE TYPE                =                                              NVE
 STEP NUMBER                  =                                              192
 TIME [fs]                    =                                        19.200000
 CONSERVED QUANTITY [hartree] =                               0.721118583763E+00

                                              INSTANTANEOUS             AVERAGES
 CPU TIME [s]                 =                        0.01                 0.01
 ENERGY DRIFT PER ATOM [K]    =         -0.413253855070E-01  -0.140210782195E-01
 POTENTIAL ENERGY[hartree]    =          0.327108474839E+00   0.334235140078E+00
 KINETIC ENERGY [hartree]     =          0.394010108924E+00   0.386904888564E+00
 TEMPERATURE [K]              =                     335.812              329.756
 *******************************************************************************

 FOBSH| Reordering: for state          10 old index was          11 with overlap  0.99999896425958301      and former   0.0000000000000000     
 FOBSH| Reordering: for state          11 old index was          10 with overlap  0.99959418808399625      and former   0.0000000000000000     
 FOBSH| New map:            1           2           3           4           5           6           7           8           9          11          10          12          13
 FOBSH| Put former active state           1 in new active state           1
 RANDOM_NUMBER_HOPPING_PROBA  0.15725300081740698     
 FOBSH| ACTIVE STATE =            1

 ENERGY| Total FORCE_EVAL ( MIXED ) energy (a.u.):             0.327335904349416

 FOBSH| CASE1: no hop and no trivial crossing
 ENTER integrator.F
 STEP NUMBER                  =          193
 CPU TIME [s]                 =    8.4514487534761429E-003   9.0093762358081225E-003

 *******************************************************************************
 ENSEMBLE TYPE                =                                              NVE
 STEP NUMBER                  =                                              193
 TIME [fs]                    =                                        19.300000
 CONSERVED QUANTITY [hartree] =                               0.721118520360E+00

                                              INSTANTANEOUS             AVERAGES
 CPU TIME [s]                 =                        0.01                 0.01
 ENERGY DRIFT PER ATOM [K]    =         -0.414061155824E-01  -0.141629696048E-01
 POTENTIAL ENERGY[hartree]    =          0.327335904349E+00   0.334199392743E+00
 KINETIC ENERGY [hartree]     =          0.393782616011E+00   0.386940524457E+00
 TEMPERATURE [K]              =                     335.618              329.787
 *******************************************************************************

 FOBSH| Put former active state           1 in new active state           1
 RANDOM_NUMBER_HOPPING_PROBA  0.99264665308187350     
 FOBSH| ACTIVE STATE =            1

 ENERGY| Total FORCE_EVAL ( MIXED ) energy (a.u.):             0.327627999362460

 FOBSH| CASE1: no hop and no trivial crossing
 ENTER integrator.F
 STEP NUMBER                  =          194
 CPU TIME [s]                 =    8.3821360021829605E-003   9.0061430387275796E-003

 *******************************************************************************
 ENSEMBLE TYPE                =                                              NVE
 STEP NUMBER                  =                                              194
 TIME [fs]                    =                                        19.400000
 CONSERVED QUANTITY [hartree] =                               0.721118508635E+00

                                              INSTANTANEOUS             AVERAGES
 CPU TIME [s]                 =                        0.01                 0.01
 ENERGY DRIFT PER ATOM [K]    =         -0.414210454967E-01  -0.143034751507E-01
 POTENTIAL ENERGY[hartree]    =          0.327627999362E+00   0.334165519581E+00
 KINETIC ENERGY [hartree]     =          0.393490509272E+00   0.386974287265E+00
 TEMPERATURE [K]              =                     335.369              329.816
 *******************************************************************************

 FOBSH| Put former active state           1 in new active state           1
 RANDOM_NUMBER_HOPPING_PROBA  0.92811593670586945     
 FOBSH| ACTIVE STATE =            1

 ENERGY| Total FORCE_EVAL ( MIXED ) energy (a.u.):             0.327984877187641

 FOBSH| CASE1: no hop and no trivial crossing
 ENTER integrator.F
 STEP NUMBER                  =          195
 CPU TIME [s]                 =    8.3714798092842102E-003   9.0028883554996650E-003

 *******************************************************************************
 ENSEMBLE TYPE                =                                              NVE
 STEP NUMBER                  =                                              195
 TIME [fs]                    =                                        19.500000
 CONSERVED QUANTITY [hartree] =                               0.721118548635E+00

                                              INSTANTANEOUS             AVERAGES
 CPU TIME [s]                 =                        0.01                 0.01
 ENERGY DRIFT PER ATOM [K]    =         -0.413701138695E-01  -0.144422784261E-01
 POTENTIAL ENERGY[hartree]    =          0.327984877188E+00   0.334133823979E+00
 KINETIC ENERGY [hartree]     =          0.393133671447E+00   0.387005873851E+00
 TEMPERATURE [K]              =                     335.065              329.842
 *******************************************************************************

 FOBSH| New map:            1           2           3           4           5           6           7           8           9          10           0           0          13
 FOBSH! New map again:           1           2           3           4           5           6           7           8           9          10           0           0          13
 FOBSH| Put former active state           1 in new active state           1
 RANDOM_NUMBER_HOPPING_PROBA  0.90000456599540779     
 FOBSH| ACTIVE STATE =            1

 ENERGY| Total FORCE_EVAL ( MIXED ) energy (a.u.):             0.328405834606322

 FOBSH| CASE1: no hop and no trivial crossing
 ENTER integrator.F
 STEP NUMBER                  =          196
 CPU TIME [s]                 =    8.4339678287506104E-003   8.9999856997509450E-003

 *******************************************************************************
 ENSEMBLE TYPE                =                                              NVE
 STEP NUMBER                  =                                              196
 TIME [fs]                    =                                        19.600000
 CONSERVED QUANTITY [hartree] =                               0.721118639923E+00

                                              INSTANTANEOUS             AVERAGES
 CPU TIME [s]                 =                        0.01                 0.01
 ENERGY DRIFT PER ATOM [K]    =         -0.412538776728E-01  -0.145790722998E-01
 POTENTIAL ENERGY[hartree]    =          0.328405834606E+00   0.334104599543E+00
 KINETIC ENERGY [hartree]     =          0.392712805317E+00   0.387034990848E+00
 TEMPERATURE [K]              =                     334.706              329.867
 *******************************************************************************

 FOBSH| New map:            1           2           3           4           5           6           7           8           9          10           0           0          13
 FOBSH! New map again:           1           2           3           4           5           6           7           8           9          10           0           0          13
 FOBSH| Put former active state           1 in new active state           1
 RANDOM_NUMBER_HOPPING_PROBA  0.70112724644934465     
 FOBSH| ACTIVE STATE =            1

 ENERGY| Total FORCE_EVAL ( MIXED ) energy (a.u.):             0.328889357426475

 FOBSH| CASE1: no hop and no trivial crossing
 ENTER integrator.F
 STEP NUMBER                  =          197
 CPU TIME [s]                 =    8.5710790008306503E-003   8.9978085083858659E-003

 *******************************************************************************
 ENSEMBLE TYPE                =                                              NVE
 STEP NUMBER                  =                                              197
 TIME [fs]                    =                                        19.700000
 CONSERVED QUANTITY [hartree] =                               0.721118781664E+00

                                              INSTANTANEOUS             AVERAGES
 CPU TIME [s]                 =                        0.01                 0.01
 ENERGY DRIFT PER ATOM [K]    =         -0.410734008203E-01  -0.147135612771E-01
 POTENTIAL ENERGY[hartree]    =          0.328889357426E+00   0.334078126233E+00
 KINETIC ENERGY [hartree]     =          0.392229424238E+00   0.387061358530E+00
 TEMPERATURE [K]              =                     334.294              329.890
 *******************************************************************************

 FOBSH| Put former active state           1 in new active state           1
 RANDOM_NUMBER_HOPPING_PROBA  0.19167188808036800     
 FOBSH| ACTIVE STATE =            1

 ENERGY| Total FORCE_EVAL ( MIXED ) energy (a.u.):             0.329433134387858

 FOBSH| CASE1: no hop and no trivial crossing
 ENTER integrator.F
 STEP NUMBER                  =          198
 CPU TIME [s]                 =    8.5774306207895279E-003   8.9956853877414412E-003

 *******************************************************************************
 ENSEMBLE TYPE                =                                              NVE
 STEP NUMBER                  =                                              198
 TIME [fs]                    =                                        19.800000
 CONSERVED QUANTITY [hartree] =                               0.721118972216E+00

                                              INSTANTANEOUS             AVERAGES
 CPU TIME [s]                 =                        0.01                 0.01
 ENERGY DRIFT PER ATOM [K]    =         -0.408307739127E-01  -0.148454663914E-01
 POTENTIAL ENERGY[hartree]    =          0.329433134388E+00   0.334054666678E+00
 KINETIC ENERGY [hartree]     =          0.391685837829E+00   0.387084714487E+00
 TEMPERATURE [K]              =                     333.831              329.910
 *******************************************************************************

 FOBSH| Put former active state           1 in new active state           1
 RANDOM_NUMBER_HOPPING_PROBA   6.4974916287414405E-002
 FOBSH| ACTIVE STATE =            1

 ENERGY| Total FORCE_EVAL ( MIXED ) energy (a.u.):             0.330034071757939

 FOBSH| CASE1: no hop and no trivial crossing
 ENTER integrator.F
 STEP NUMBER                  =          199
 CPU TIME [s]                 =    8.4312930703163147E-003   8.9928492454428230E-003

 *******************************************************************************
 ENSEMBLE TYPE                =                                              NVE
 STEP NUMBER                  =                                              199
 TIME [fs]                    =                                        19.900000
 CONSERVED QUANTITY [hartree] =                               0.721119208720E+00

                                              INSTANTANEOUS             AVERAGES
 CPU TIME [s]                 =                        0.01                 0.01
 ENERGY DRIFT PER ATOM [K]    =         -0.405296373522E-01  -0.149745325772E-01
 POTENTIAL ENERGY[hartree]    =          0.330034071758E+00   0.334034462684E+00
 KINETIC ENERGY [hartree]     =          0.391085136962E+00   0.387104817112E+00
 TEMPERATURE [K]              =                     333.319              329.927
 *******************************************************************************

 FOBSH| Put former active state           1 in new active state           1
 RANDOM_NUMBER_HOPPING_PROBA  0.26678893260939468     
 FOBSH| ACTIVE STATE =            1

 ENERGY| Total FORCE_EVAL ( MIXED ) energy (a.u.):             0.330688327671419

 FOBSH| CASE1: no hop and no trivial crossing
 ENTER integrator.F
 STEP NUMBER                  =          200
 CPU TIME [s]                 =    8.3800330758094788E-003   8.9897851645946558E-003

 *******************************************************************************
 ENSEMBLE TYPE                =                                              NVE
 STEP NUMBER                  =                                              200
 TIME [fs]                    =                                        20.000000
 CONSERVED QUANTITY [hartree] =                               0.721119491480E+00

                                              INSTANTANEOUS             AVERAGES
 CPU TIME [s]                 =                        0.01                 0.01
 ENERGY DRIFT PER ATOM [K]    =         -0.401696029224E-01  -0.151005079289E-01
 POTENTIAL ENERGY[hartree]    =          0.330688327671E+00   0.334017732009E+00
 KINETIC ENERGY [hartree]     =          0.390431163809E+00   0.387121448846E+00
 TEMPERATURE [K]              =                     332.762              329.941
 *******************************************************************************


 -------------------------------------------------------------------------------
 -                                                                             -
 -                                DBCSR STATISTICS                             -
 -                                                                             -
 -------------------------------------------------------------------------------
 COUNTER                                    TOTAL       BLAS       SMM       ACC
 flops total                                    0       0.0%      0.0%      0.0%
 flops max/rank                                 0       0.0%      0.0%      0.0%
 matmuls inhomo. stacks                         0       0.0%      0.0%      0.0%
 matmuls total                                  0       0.0%      0.0%      0.0%
 number of processed stacks                     0       0.0%      0.0%      0.0%
 average stack size                                     0.0       0.0       0.0
 marketing flops                     0.000000E+00
 -------------------------------------------------------------------------------

 MEMORY| Estimated peak process memory [MiB]                                 107

 -------------------------------------------------------------------------------
 -                                                                             -
 -                           R E F E R E N C E S                               -
 -                                                                             -
 -------------------------------------------------------------------------------
 
 CP2K version 4.0 (Development Version), the CP2K developers group (2015).
 CP2K is freely available from https://www.cp2k.org/ .

 Borstnik, U; VandeVondele, J; Weber, V; Hutter, J. 
 PARALLEL COMPUTING, 40 (5-6), 47-58 (2014). 
 Sparse matrix multiplication: The distributed block-compressed sparse
 row library.
 http://dx.doi.org/10.1016/j.parco.2014.03.012


 Hutter, J; Iannuzzi, M; Schiffmann, F; VandeVondele, J. 
 WILEY INTERDISCIPLINARY REVIEWS-COMPUTATIONAL MOLECULAR SCIENCE, 4 (1), 15-25 (2014). 
 CP2K: atomistic simulations of condensed matter systems.
 http://dx.doi.org/10.1002/wcms.1159


 Frigo, M; Johnson, SG. 
 PROCEEDINGS OF THE IEEE, 93 (2), 216-231 (2005). 
 The design and implementation of FFTW3.
 http://dx.doi.org/10.1109/JPROC.2004.840301


 -------------------------------------------------------------------------------
 -                                                                             -
 -                                T I M I N G                                  -
 -                                                                             -
 -------------------------------------------------------------------------------
 SUBROUTINE                       CALLS  ASD         SELF TIME        TOTAL TIME
                                MAXIMUM       AVERAGE  MAXIMUM  AVERAGE  MAXIMUM
 CP2K                                 1  1.0    0.050    0.050   45.664   45.664
 topology_control                    14  4.0    0.008    0.008   41.584   41.584
 connectivity_control                14  5.0    0.033    0.033   41.311   41.311
 read_topology_psf                 1792  6.0   20.083   20.083   41.271   41.271
 fist_create_force_env               13  2.0    0.000    0.000   38.410   38.410
 fist_init                           13  3.0    0.004    0.004   38.410   38.410
 parser_read_line                 45305  6.6    0.337    0.337   22.727   22.727
 parser_read_line_low              1923  7.9   22.378   22.378   22.390   22.390
 mixed_create_force_env               1  2.0    0.001    0.001    5.363    5.363
 mixed_init                           1  3.0    0.000    0.000    5.362    5.362
 force_field_control                 13  4.0    0.001    0.001    2.147    2.147
 read_force_field_charmm             13  5.0    0.679    0.679    2.067    2.067
 qs_mol_dyn_low                       1  2.0    0.006    0.006    1.830    1.830
 velocity_verlet                    200  3.0    0.306    0.306    1.510    1.510
 fist_calc_energy_force            2652  4.0    0.031    0.031    1.205    1.205
 -------------------------------------------------------------------------------

 The number of warnings for this run is : 1
 
 -------------------------------------------------------------------------------
  **** **** ******  **  PROGRAM ENDED AT                 2021-04-29 14:24:17.508
 ***** ** ***  *** **   PROGRAM RAN ON                   bulstake.phys.ucl.ac.uk
 **    ****   ******    PROGRAM RAN BY                                 sgiannini
 ***** **    ** ** **   PROGRAM PROCESS ID                                 12979
  **** **  *******  **  PROGRAM STOPPED IN /scratch/sgiannini/REG_TEST_MERGING/3
                                           7-071a0540f1_code_extension_V3_ADJ/ru
                                           n-fssh-3NAP-3ANT-NFF-FE-CT-CR-C-inter
