#     Step Nr.          Time[fs]        Kin.[a.u.]          Temp[K]            Pot.[a.u.]        Cons Qty[a.u.]        UsedTime[s]
         0            0.000000        32.105502583       488.948553080        36.728419105        68.833921688         0.000000000
         1            0.100000        32.821328222       499.850170637        36.012053530        68.833381752         1.502690898
         2            0.200000        33.536186939       510.737062520        35.296659741        68.832846680         0.221605213
         3            0.300000        34.241544344       521.479254815        34.590778910        68.832323254         0.221621936
         4            0.400000        34.929053433       531.949627405        33.902764589        68.831818022         0.221539948
         5            0.500000        35.590659691       542.025514605        33.240677607        68.831337298         0.222050600
         6            0.600000        36.218702813       551.590254324        32.612184610        68.830887423         0.221626440
         7            0.700000        36.806018950       560.534745209        32.024464686        68.830483636         0.402819080
         8            0.800000        37.346002646       568.758389933        31.484108621        68.830111267         0.221215233
         9            0.900000        37.832644482       576.169668448        30.997139393        68.829783874         0.402846295
        10            1.000000        38.260857311       582.691106412        30.568649632        68.829506943         0.221523704
        11            1.100000        38.626182717       588.254804656        30.203099368        68.829282085         0.220871011
        12            1.200000        38.925060415       592.806542099        29.904052377        68.829112792         0.221430236
        13            1.300000        39.154818571       596.305628198        29.674182405        68.829000976         0.221706543
        14            1.400000        39.313705474       598.725385416        29.515242360        68.828947834         0.221275635
        15            1.500000        39.400908035       600.053430850        29.428045711        68.828953747         0.221546901
        16            1.600000        39.416558167       600.291773454        29.412460163        68.829018330         0.221636191
        17            1.700000        39.361726991       599.456725822        29.467413468        68.829140459         0.221917253
        18            1.800000        39.238406854       597.578630240        29.590911452        68.829318306         0.221579006
        19            1.900000        39.049481462       594.701403913        29.780067843        68.829549305         0.221574798
        20            2.000000        38.798684779       590.881913001        30.031145367        68.829830146         0.221682006
        21            2.100000        38.490549144       586.189182452        30.339607827        68.830156972         0.221364167
        22            2.200000        38.130343021       580.703447972        30.700182287        68.830525308         0.222079247
        23            2.300000        37.723999131       574.515061527        31.106931003        68.830930134         0.221273160
        24            2.400000        37.278034595       567.723275163        31.553331400        68.831365995         0.221485784
        25            2.500000        36.799463478       560.434909101        32.032363520        68.831826998         0.221437741
        26            2.600000        36.295702570       552.762916857        32.536604433        68.832307003         0.221950516
        27            2.700000        35.774472590       544.824880566        33.058326924        68.832799514         0.221680125
        28            2.800000        35.243695414       536.741445914        33.589602542        68.833297957         0.221476851
        29            2.900000        34.711388659       528.634716637        34.122407044        68.833795703         0.220847538
        30            3.000000        34.185559322       520.626634752        34.648726785        68.834286107         0.221312664
        31            3.100000        33.674097653       512.837364289        35.160664985        68.834762638         0.221679345
        32            3.200000        33.184672572       505.383698527        35.650546396        68.835218967         0.220716555
        33            3.300000        32.724629836       498.377509190        36.111019162        68.835648998         0.221016068
        34            3.400000        32.300894934       491.924267513        36.535152057        68.836046991         0.221157018
        35            3.500000        31.919881466       486.121648991        36.916526157        68.836407622         0.221029771
        36            3.600000        31.587405766       481.058233082        37.249320283        68.836726048         0.221301833
        37            3.700000        31.308609823       476.812329366        37.528388205        68.836998028         0.221437972
        38            3.800000        31.087892992       473.450937497        37.749326953        68.837219945         0.221585788
        39            3.900000        30.928853297       471.028853363        37.908535460        68.837388758         0.221585438
        40            4.000000        30.834239480       469.587938704        38.003262662        68.837502141         0.221905107
        41            4.100000        30.805913883       469.156555967        38.031644701        68.837558584         0.221517546
        42            4.200000        30.844826930       469.749179561        37.992730270        68.837557201         0.221562656
        43            4.300000        30.951003739       471.366191994        37.886494205        68.837497944         0.221672349
        44            4.400000        31.123542641       473.993861384        37.713838855        68.837381496         0.221817415
        45            4.500000        31.360626013       477.604506361        37.476583271        68.837209283         0.221469233
        46            4.600000        31.659542979       482.156841838        37.177440473        68.836983452         0.221451709
        47            4.700000        32.016723651       487.596500422        36.819983185        68.836706836         0.221094359
        48            4.800000        32.427784845       493.856728725        36.408598207        68.836383052         0.221123034
        49            4.900000        32.887586285       500.859243265        35.948429934        68.836016219         0.221693611
        50            5.000000        33.390296691       508.515236978        35.445314365        68.835611056         0.221135251
        51            5.100000        33.929469120       516.726526559        34.905703644        68.835172765         0.221012091
        52            5.200000        34.498123581       525.386810731        34.336583191        68.834706772         0.221083861
        53            5.300000        35.088805335       534.382558059        33.745395036        68.834200372         0.221052278
        54            5.400000        35.693843416       543.596944085        33.139866435        68.833709851         0.403026002
        55            5.500000        36.305129239       552.906479666        32.528069568        68.833198807         0.221517675
        56            5.600000        36.914540370       562.187464750        31.918145520        68.832685890         0.221545173
        57            5.700000        37.513885426       571.315149237        31.318292224        68.832177650         0.221657267
        58            5.800000        38.095043804       580.165860957        30.736636906        68.831680710         1.259998620
        59            5.900000        38.650071151       588.618611936        30.181130363        68.831201514         0.221143322
        60            6.000000        39.171302680       596.556671815        29.659443646        68.830746326         0.221148228
        61            6.100000        39.651452898       603.869086669        29.178868255        68.830321153         0.220732564
        62            6.200000        40.083711082       610.452133094        28.746220430        68.829931512         0.221308507
        63            6.300000        40.461830560       616.210677788        28.367751960        68.829582520         0.221084328
        64            6.400000        40.780210795       621.059427776        28.049068071        68.829278866         0.221131809
        65            6.500000        41.033971269       624.924055531        27.795053263        68.829024532         0.221356539
        66            6.600000        41.219016286       627.742185945        27.609806693        68.828822978         0.222173821
        67            6.700000        41.332089955       629.464233655        27.496586984        68.828676939         0.221561335
        68            6.800000        41.370820384       630.054076070        27.457768094        68.828588478         0.221458647
        69            6.900000        41.333752562       629.489554209        27.494806334        68.828558896         0.221594933
        70            7.000000        41.220369487       627.762794427        27.608219314        68.828588801         0.221406551
