900
 i =        0, time =        0.000, E =         2.4467970547
  C        -0.0002007158        0.0000531295        0.0000297221
  C        -0.0001509368       -0.0001446085       -0.0000559649
  C        -0.0001169633       -0.0002561952       -0.0000017806
  C        -0.0002222371       -0.0001513312       -0.0000469908
  C        -0.0000153137       -0.0001719576       -0.0000853329
  H        -0.0002576466        0.0003730456       -0.0008296653
  H        -0.0020266554        0.0018241191        0.0003997816
  H         0.0000832688        0.0023562415       -0.0006096749
  H         0.0005093195        0.0007653979        0.0005337209
  C        -0.0001297411        0.0001773717       -0.0001784943
  C        -0.0002199195        0.0000163915        0.0004471720
  C         0.0003351542        0.0000254893        0.0002110784
  C         0.0000738555       -0.0000521624       -0.0003447562
  C        -0.0001867840       -0.0002150138        0.0000173241
  H         0.0017908232        0.0013748655        0.0007412012
  H         0.0010610376       -0.0023711218       -0.0007031158
  H         0.0011555875       -0.0007042918        0.0004848649
H   -0.0000995127  0.0006543047  0.0002671128
CP   0.0002108783  0.0004537816  0.0002623416
CP   0.0002596635  -0.0002014757  -0.0002120541
CP   -0.0000058589  -0.0004417396  0.0001753070
CP   -0.0002531653  0.0002890882  0.0001769316
CP   -0.0000852696  -0.0002418763  -0.0001244228
H   -0.0018485660  0.0004338972  0.0012116813
H   -0.0003022509  0.0011671272  -0.0003704540
H   -0.0017090908  -0.0001254127  -0.0013652311
H   -0.0018029701  -0.0010717640  0.0014654712
CP   -0.0002313171  -0.0000853792  -0.0001028742
CP   -0.0001129705  0.0002175206  -0.0002180537
CP   0.0001348778  0.0002351971  -0.0001428177
CP   -0.0002578889  0.0001881627  -0.0002633805
CP   0.0000702753  -0.0000088522  0.0000998329
H   0.0019186209  -0.0008253438  -0.0012469894
H   -0.0008050361  -0.0003740497  0.0001675576
H   0.0009405571  -0.0010280075  0.0012420313
  H         0.0024597554       -0.0008139951       -0.0021752919
  C        -0.0000581709        0.0004438289       -0.0001138135
  C        -0.0000433419       -0.0002957038        0.0003196071
  C        -0.0002751512       -0.0000406809       -0.0000879705
  C        -0.0000046126        0.0000131506        0.0001343341
  C         0.0000472213       -0.0004361715        0.0002336100
  H         0.0004681989       -0.0010863453       -0.0020756678
  H         0.0002566703        0.0005684510        0.0007535302
  H        -0.0004275762        0.0009325344       -0.0006014029
  H        -0.0000732590        0.0001025064       -0.0005451959
  C        -0.0000748674        0.0000943202        0.0002506898
  C        -0.0000388333        0.0002235596        0.0000999487
  C        -0.0000675906        0.0001258394       -0.0001420968
  C         0.0002556380        0.0003299771       -0.0003170713
  C        -0.0002144826       -0.0000314999        0.0003216210
  H         0.0001164280        0.0000691118        0.0022443307
  H        -0.0006559469       -0.0024447113       -0.0008349749
  H         0.0001441359       -0.0026302778        0.0004197827
H   -0.0009300605  -0.0009638127  -0.0011726703
CP   0.0001674421  0.0000752907  -0.0000671344
CP   -0.0001497110  -0.0001491981  0.0000664436
CP   0.0002811702  0.0000696925  0.0002228441
CP   -0.0000406323  -0.0000457669  0.0000305823
CP   -0.0001363010  -0.0000101329  0.0001673353
H   -0.0009462142  0.0024220600  0.0003708675
H   -0.0001269613  0.0006458965  -0.0010153688
H   -0.0011580422  0.0012916728  -0.0012040904
H   -0.0000293992  -0.0009596805  0.0006204492
CP   0.0001959253  0.0001511733  -0.0001133840
CP   0.0003202484  -0.0003942578  0.0003019786
CP   0.0001082463  -0.0000323806  -0.0000844295
CP   0.0000929849  -0.0001983078  0.0002468242
CP   -0.0002199306  0.0000689498  -0.0002496262
H   -0.0005264898  0.0025180878  -0.0016187829
H   0.0001809343  -0.0011827153  0.0021119221
H   0.0011687888  -0.0014519211  -0.0012236128
  H        -0.0000502364       -0.0010302892       -0.0003628606
  C         0.0001124164        0.0003614340       -0.0001155435
  C         0.0000089924       -0.0004543096        0.0001521399
  C         0.0000152065        0.0000093278        0.0002587281
  C         0.0001974656       -0.0000988989       -0.0001900396
  C         0.0000049428       -0.0003676367       -0.0000458091
  H         0.0010056870       -0.0007104763       -0.0000280658
  H         0.0009835294        0.0033900796       -0.0002832966
  H         0.0002880374        0.0011628422        0.0006343658
  H        -0.0002406699       -0.0021472093       -0.0021647747
  C        -0.0000551314        0.0001710977        0.0000705243
  C         0.0002369864       -0.0001157537        0.0001928966
  C        -0.0001566194        0.0002908355       -0.0002637396
  C        -0.0002211060        0.0002409043        0.0001366547
  C         0.0002250240        0.0002054912       -0.0001879738
  H        -0.0008783701       -0.0011791089        0.0003364049
  H        -0.0001406728       -0.0011664849        0.0000931747
  H        -0.0007026978       -0.0025639275        0.0003034162
  H         0.0000206075       -0.0002367158       -0.0015808226
  C        -0.0000953768        0.0005345445        0.0004840779
  C         0.0001161597       -0.0001017913       -0.0002459349
  C        -0.0001326319       -0.0000162553       -0.0001817109
  C        -0.0001075139       -0.0000391692        0.0003875777
  C        -0.0003828311       -0.0003514271        0.0002134483
  H        -0.0001955045        0.0015532375       -0.0014319914
  H        -0.0005362726        0.0002675445       -0.0002463502
  H        -0.0013458172        0.0025572831       -0.0011582855
  H        -0.0002476480       -0.0004236506        0.0010380941
  C         0.0001524097       -0.0000893779       -0.0001650347
  C        -0.0000150316       -0.0001136091        0.0000612816
  C        -0.0000121656       -0.0000036071       -0.0001533994
  C        -0.0003540378       -0.0000866268        0.0004167923
  C        -0.0002268009        0.0001843389        0.0000805219
  H         0.0010255052       -0.0014127068       -0.0017319247
  H         0.0006932888       -0.0023529482        0.0010237187
  H         0.0004949770       -0.0012555661        0.0000178197
  H         0.0005715821       -0.0000372358       -0.0003563342
  C         0.0003244819       -0.0001092575        0.0000223479
  C        -0.0001141030        0.0000504642        0.0000510344
  C         0.0002409444       -0.0000892756       -0.0002396131
  C        -0.0003149225        0.0001049746       -0.0000650295
  C        -0.0003178490        0.0000087703        0.0003260620
  H         0.0014570932        0.0018826468        0.0000765583
  H        -0.0003806126        0.0012675797        0.0009948781
  H         0.0004717830        0.0016790433       -0.0005647595
  H         0.0022495612       -0.0007401741       -0.0016262444
  C        -0.0002150541       -0.0003206588       -0.0000521573
  C         0.0000987181        0.0003574908        0.0003258737
  C         0.0000045823        0.0004036140        0.0001719416
  C         0.0000647726        0.0002948486       -0.0000064496
  C        -0.0005657521       -0.0002409170       -0.0001227196
  H        -0.0005537036       -0.0002021179        0.0008747488
  H         0.0004518412       -0.0028376657       -0.0013806509
  H        -0.0008098598       -0.0027813556        0.0006220084
  H         0.0001269715        0.0000897480       -0.0007478939
  C        -0.0003338461        0.0004644187        0.0000969718
  C         0.0004200602       -0.0003593489        0.0000190201
  C         0.0001990814       -0.0001291306       -0.0004618319
  C        -0.0002876331        0.0003575602        0.0003579012
  C         0.0000185136       -0.0002824668        0.0000646551
  H        -0.0004761927        0.0019434950       -0.0002098828
  H        -0.0004549573        0.0022532141        0.0006415649
  H        -0.0001888613        0.0020371873       -0.0013434782
  H        -0.0009326739       -0.0006059388        0.0014619293
  C        -0.0002553956        0.0001893600       -0.0001438368
  C        -0.0002863191        0.0002671050       -0.0003192697
  C        -0.0000576031        0.0003322028       -0.0003584575
  C        -0.0003441611       -0.0000237301        0.0001449901
  C        -0.0000413707       -0.0000474037       -0.0003646567
  H         0.0007020939       -0.0006464293       -0.0013457519
  H         0.0011135114       -0.0018731297        0.0009323073
  H        -0.0001303488       -0.0025761565        0.0011452845
  H         0.0005005348       -0.0003644054        0.0009507809
  C         0.0000813821        0.0003781198        0.0000787871
  C         0.0001280396       -0.0004245240       -0.0003191912
  C        -0.0002497920       -0.0002732258        0.0003021499
  C         0.0003489360        0.0003088692       -0.0001457314
  C        -0.0000065863       -0.0003898827       -0.0002023036
  H         0.0010430920        0.0008965652       -0.0006227688
  H         0.0002587784        0.0009651619       -0.0002749500
  H         0.0002456644        0.0014029933       -0.0000326646
  H        -0.0007564219        0.0005365435       -0.0015369138
  C         0.0000186497        0.0000041516       -0.0001554430
  C        -0.0001776908       -0.0000363087       -0.0006044910
  C         0.0000996474        0.0003083151       -0.0000576899
  C        -0.0002137938       -0.0000119006        0.0000838335
  C        -0.0002135509        0.0001282297        0.0002408532
  H         0.0007519343        0.0006046871        0.0010657370
  H        -0.0014672417       -0.0017908016        0.0000927179
  H         0.0001405469       -0.0012552952       -0.0012979980
  H         0.0006352985        0.0000267897       -0.0006547575
  C         0.0000822154        0.0002892480        0.0002028380
  C        -0.0001764192       -0.0000393557        0.0001267103
  C         0.0000483137       -0.0006021744       -0.0004122500
  C         0.0002311765        0.0003090666        0.0003853123
  C         0.0001632099        0.0000027218        0.0002396095
  H        -0.0006562598        0.0003749234        0.0001580250
  H        -0.0000007887        0.0010440455        0.0007318427
  H         0.0004897548        0.0023333507       -0.0003369885
  H        -0.0006308306        0.0006291236        0.0012825388
  C         0.0002519474        0.0000175634       -0.0006199437
  C        -0.0003021178       -0.0001781306       -0.0000579350
  C         0.0001686964        0.0003000402        0.0002436635
  C        -0.0002062400       -0.0001102738        0.0000497633
  C         0.0001897363        0.0002738467       -0.0000767335
  H         0.0006130946       -0.0005640870        0.0002885655
  H        -0.0002001687       -0.0010868941       -0.0012355839
  H         0.0000369572       -0.0021263551        0.0003406251
  H        -0.0007382949       -0.0003431318        0.0003201045
  C        -0.0001719677        0.0001126847       -0.0003380082
  C        -0.0002396281       -0.0003889248        0.0002369826
  C         0.0002170321       -0.0000801293       -0.0001342392
  C         0.0001426986        0.0001022271       -0.0001362464
  C         0.0001069565        0.0002271050        0.0001201541
  H        -0.0003186114       -0.0007338006        0.0013844797
  H         0.0007968199        0.0037118830        0.0006489221
  H         0.0005836973        0.0029709986        0.0005576667
  H        -0.0010597564       -0.0016003828       -0.0004533098
  C         0.0001660809        0.0004198585       -0.0000504636
  C        -0.0002057760        0.0001450762        0.0003598878
  C         0.0000611225        0.0001179825        0.0003323311
  C         0.0002912468        0.0002686702       -0.0001963915
  C         0.0005435401       -0.0003651156        0.0005956809
  H        -0.0010186824        0.0009039798       -0.0008156225
  H         0.0001210694       -0.0021028715        0.0006682776
  H        -0.0024076078       -0.0021540957       -0.0009579721
H   0.0000503178  -0.0004900483  -0.0006937640
CP   0.0001398320  -0.0000922917  -0.0000064699
CP   -0.0002736953  -0.0003848034  0.0002853580
CP   0.0002713249  -0.0002426030  0.0000522292
CP   -0.0001124091  0.0000789415  0.0000468735
CP   0.0002220025  -0.0004492975  -0.0000511487
H   -0.0009182237  0.0020819010  0.0003336355
H   -0.0000214821  -0.0005406486  -0.0023656490
H   -0.0010295079  0.0015826384  0.0002801242
H   -0.0013445069  0.0024087188  0.0011528649
CP   -0.0004395424  0.0005035962  -0.0005275989
CP   0.0001138277  0.0002355362  0.0001230132
CP   -0.0000559161  0.0002620465  -0.0000158793
CP   0.0001570557  -0.0003215339  0.0002280527
CP   -0.0002100531  0.0001420281  -0.0002917352
H   -0.0001914705  -0.0006473288  0.0006271060
H   0.0005734939  -0.0008126796  0.0000879075
H   0.0000566619  0.0000675582  0.0005809263
H   -0.0007628437  0.0010640645  0.0015169630
CP   0.0000122238  -0.0001866343  -0.0002818615
CP   0.0000177415  -0.0004313938  0.0002471262
CP   0.0002839669  -0.0001603753  -0.0001873066
CP   -0.0002415688  -0.0001227206  -0.0001640942
CP   -0.0000182081  0.0003052910  0.0000964373
H   -0.0005741087  0.0002019690  0.0008420227
H   0.0008372532  0.0028203769  0.0000693716
H   0.0004659345  0.0024003536  -0.0004571599
H   -0.0002621308  0.0003321131  -0.0013940661
CP   0.0000209133  0.0000633732  0.0001703361
CP   0.0000005690  0.0001685847  -0.0000144620
CP   0.0000642319  -0.0000140345  0.0001869264
CP   -0.0004511696  0.0002613157  0.0001935335
CP   -0.0002013007  -0.0004333514  0.0001506271
H   -0.0004695329  -0.0003611750  0.0011582867
H   0.0000796782  -0.0017351505  -0.0009266180
H   -0.0012079702  -0.0017910360  -0.0010411873
H   0.0002140996  0.0002298370  -0.0003404160
CP   -0.0002900188  -0.0001724660  0.0003298595
CP   0.0001993682  -0.0004074042  -0.0002371017
CP   0.0000504404  -0.0001716769  0.0004738218
CP   0.0002451241  -0.0002777870  0.0001303914
CP   0.0001078647  0.0002086663  0.0000602479
H   0.0003227412  0.0008806629  -0.0002292646
H   -0.0008360943  0.0023469870  -0.0008217213
H   0.0013042766  0.0021829855  0.0003099123
H   -0.0005135315  -0.0014670047  0.0018935896
CP   -0.0000157660  -0.0000046435  0.0001308580
CP   0.0001452133  0.0001790334  0.0000038104
CP   0.0001341387  0.0001590956  0.0002224374
CP   0.0000400971  0.0004669655  -0.0000485652
CP   0.0002638019  -0.0001911430  0.0003432915
H   0.0004839327  -0.0016548611  -0.0017181169
H   0.0010877375  -0.0010327738  -0.0003274964
H   0.0004048047  -0.0017528510  0.0009170325
H   0.0004221986  0.0007834409  -0.0016907001
CP   0.0002192404  0.0002702551  0.0000472157
CP   0.0000124729  0.0001204283  0.0001900879
CP   -0.0000432521  -0.0001786028  -0.0000379697
CP   -0.0000499280  0.0000317523  -0.0004001654
CP   -0.0000328111  -0.0001277890  0.0000752937
H   -0.0000914613  0.0001020126  -0.0010521316
H   -0.0004163161  -0.0000841907  0.0015786372
H   0.0002871575  0.0030635176  0.0024133544
H   0.0010332301  -0.0012541979  -0.0023940846
CP   0.0000641388  -0.0001412839  -0.0002418804
CP   0.0001846462  0.0002891151  0.0000766764
CP   -0.0000296127  0.0002217236  0.0000987902
CP   0.0002697991  0.0003396923  0.0000363771
CP   -0.0001081196  -0.0001059454  0.0002794220
H   -0.0007136500  -0.0011461990  0.0003142648
H   -0.0010655944  -0.0022647306  -0.0013115491
H   -0.0012228490  -0.0008318544  -0.0003428914
  H         0.0006931248       -0.0011098093       -0.0007988894
  C        -0.0001714521        0.0002416968        0.0001473535
  C         0.0001069360       -0.0004992207       -0.0001386125
  C        -0.0002320853       -0.0000001441       -0.0005977110
  C        -0.0000579310       -0.0002867737        0.0000168463
  C        -0.0001570222       -0.0000721996        0.0000815239
  H        -0.0003660993        0.0010172477       -0.0004624551
  H         0.0017638326        0.0008764958       -0.0003622315
  H        -0.0003198211        0.0021324671        0.0003816943
  H         0.0001232478       -0.0001445678       -0.0004883721
  C         0.0000065818       -0.0001427446       -0.0000797234
  C         0.0002739981       -0.0003129253       -0.0001448782
  C         0.0000960578        0.0002331194       -0.0002810849
  C        -0.0000263005        0.0000725936        0.0004649822
  C         0.0002849824       -0.0002175586       -0.0001683751
  H         0.0000029125       -0.0002214356       -0.0016041729
  H        -0.0003812570       -0.0021180218        0.0010245003
  H         0.0003366576       -0.0027883041        0.0017384767
  H         0.0003217994       -0.0010158600        0.0011721161
  C        -0.0001548982       -0.0001374041        0.0002902152
  C        -0.0002414596       -0.0001744055       -0.0001728055
  C        -0.0001059333       -0.0001182575        0.0003648620
  C         0.0001285096        0.0000613247        0.0002084021
  C         0.0000498526       -0.0005060736       -0.0001138623
  H        -0.0002848410       -0.0009295494       -0.0005485303
  H         0.0006503050        0.0025300121        0.0010658736
  H         0.0004311643        0.0025773206        0.0008252031
  H         0.0009662042        0.0018857774        0.0002084552
  C         0.0003129309       -0.0001380972       -0.0001499635
  C         0.0002564890       -0.0001760167       -0.0001260099
  C         0.0004367674        0.0002978645        0.0000922207
  C         0.0000701276        0.0000585711        0.0000943956
  C        -0.0001988426       -0.0001810711        0.0003896229
  H         0.0002669040        0.0001838745        0.0014399375
  H        -0.0016095236       -0.0033905189        0.0000854753
  H        -0.0005746689       -0.0024989439       -0.0009637776
  H        -0.0004056098       -0.0012299859       -0.0010771399
  C        -0.0000076932       -0.0002409290        0.0000216262
  C        -0.0001364946       -0.0005054092       -0.0000530352
  C         0.0000762549        0.0006054136       -0.0003670822
  C        -0.0001462189       -0.0002867738        0.0001321541
  C         0.0003709137        0.0002278257        0.0001860800
  H        -0.0015599636        0.0019801705       -0.0004588692
  H         0.0003848610        0.0017317363        0.0005172223
  H         0.0003485404        0.0017361966       -0.0017652443
  H         0.0002653474        0.0010430791        0.0014226920
  C         0.0000054194        0.0000303625       -0.0000947389
  C        -0.0001576247        0.0001280743        0.0000147189
  C        -0.0000642335       -0.0001398629        0.0000788217
  C        -0.0000327763        0.0001966197        0.0001557980
  C        -0.0001917686       -0.0001760692       -0.0000530691
  H         0.0008182303        0.0016262753       -0.0009452168
  H         0.0014332152       -0.0003791253        0.0005791435
  H        -0.0008937482       -0.0018467100        0.0013037491
  H        -0.0003217718        0.0016042593       -0.0015021230
  C        -0.0001586664       -0.0000831246        0.0001960855
  C        -0.0000766329       -0.0002156792       -0.0000271721
  C         0.0001120980       -0.0002868428       -0.0003818255
  C         0.0002309159        0.0000036910       -0.0003074975
  C        -0.0000128080       -0.0000839808       -0.0000433955
  H         0.0004576211       -0.0005693132        0.0001910018
  H         0.0011716235        0.0030265298        0.0017340942
  H         0.0009582863        0.0028501315        0.0001204612
  H         0.0002751847        0.0016563274       -0.0002284607
  C         0.0003653705       -0.0000607766       -0.0002755731
  C         0.0001143436        0.0000837770        0.0001429326
  C        -0.0002463375        0.0003336643        0.0000943513
  C         0.0001805404        0.0000038713       -0.0000958237
  C        -0.0004341005       -0.0003420746        0.0001711142
  H        -0.0000745236        0.0003448568        0.0007987356
  H        -0.0020381809       -0.0013485144       -0.0007243107
  H        -0.0005372740       -0.0015564441       -0.0012218491
  H        -0.0016713414       -0.0015724941       -0.0004389606
  C        -0.0002959558        0.0000391361        0.0004904126
  C         0.0002233847       -0.0001704906       -0.0004409652
  C        -0.0005525650       -0.0001000671        0.0000181866
  C         0.0002449405        0.0000579837        0.0001134559
  C         0.0003208030       -0.0000205423        0.0002112871
  H        -0.0003884192       -0.0002854426       -0.0003770385
  H         0.0014693645        0.0024710186        0.0001104907
  H        -0.0017039025        0.0004014885       -0.0011300102
  H        -0.0006801449       -0.0005275473       -0.0002455346
  C         0.0000008010        0.0002009563        0.0000321600
  C         0.0002832298        0.0003611462       -0.0000834135
  C        -0.0001937741        0.0001284738       -0.0000806784
  C         0.0000313427        0.0001106826       -0.0000577890
  C        -0.0001340771       -0.0003717706        0.0003696921
  H         0.0005494753       -0.0016275470        0.0024028209
  H         0.0012975296       -0.0035283049       -0.0015544669
  H         0.0001114076       -0.0006393268        0.0002463216
  H         0.0005541494        0.0014586449       -0.0009705376
  C         0.0002178566        0.0002839595       -0.0000059276
  C        -0.0003981379       -0.0003921549       -0.0000811223
  C        -0.0000890607       -0.0001014099        0.0005148071
  C         0.0001484256        0.0004464950       -0.0000617009
  C        -0.0001307036        0.0000286870       -0.0001932869
  H        -0.0004947474        0.0005502440        0.0009051141
  H         0.0006444942        0.0016998267       -0.0002774348
  H         0.0018330689        0.0018785572        0.0016409514
  H         0.0007888651        0.0004255123       -0.0011895007
  C         0.0002857344        0.0000788473       -0.0003488856
  C         0.0001460985       -0.0001486072       -0.0005188210
  C         0.0004978135        0.0002290316        0.0003271643
  C        -0.0001097727        0.0000276955       -0.0003143112
  C         0.0003010864        0.0002234735        0.0001746272
  H        -0.0012692832        0.0004328065        0.0020093442
  H        -0.0010075794       -0.0008455442        0.0001061627
  H        -0.0010320050       -0.0017288436       -0.0012640435
  H        -0.0001003253       -0.0006587297        0.0007837939
  C        -0.0001986067        0.0000829198        0.0001491463
  C         0.0001880485       -0.0003661662       -0.0000418110
  C        -0.0000913881        0.0002856341       -0.0004239291
  C        -0.0001907167        0.0002707737        0.0003016484
  C        -0.0002974665       -0.0003757071        0.0000515724
  H        -0.0003676946        0.0005254966       -0.0005407542
  H         0.0010683498        0.0006508545        0.0002601448
  H         0.0000706254        0.0005188081       -0.0010473027
  H        -0.0004018506       -0.0015600541        0.0009194361
  C         0.0000772284       -0.0004846290       -0.0006040841
  C         0.0002191591        0.0000895193        0.0001916544
  C         0.0000915063        0.0002251163       -0.0003232547
  C        -0.0004806728        0.0001482135        0.0002432091
  C        -0.0003604496        0.0002655935       -0.0003431408
  H         0.0009824193        0.0002998500       -0.0018047503
  H        -0.0005542097       -0.0012049773        0.0011695430
  H         0.0009987291       -0.0017980853        0.0011830142
H   0.0001973032  -0.0000630099  -0.0013247800
CP   -0.0002054666  0.0005790896  0.0001315687
CP   0.0002291925  0.0000054877  -0.0000946529
CP   -0.0000397274  -0.0004061513  -0.0000559754
CP   -0.0000070182  0.0002557214  -0.0001015657
CP   0.0000612747  -0.0004763431  0.0002195875
H   -0.0001217762  -0.0010806122  -0.0003944424
H   -0.0005008924  0.0014983429  0.0016863215
H   0.0009873809  0.0017899110  0.0005814664
H   0.0017521127  0.0023249440  -0.0015533023
CP   0.0000095647  0.0000828078  0.0002134751
CP   0.0000062528  0.0003368101  0.0001039290
CP   0.0000850223  0.0002232992  0.0000165194
CP   0.0002404818  0.0000063503  -0.0002373551
CP   -0.0000874412  -0.0001083219  -0.0000699751
H   -0.0013013706  -0.0001966612  0.0022608458
H   -0.0001596326  -0.0020633016  -0.0000170430
H   0.0003307298  -0.0002511641  -0.0001649253
  H        -0.0001748883       -0.0011256937        0.0003004997
  C        -0.0001200903        0.0001889757        0.0000344629
  C        -0.0001095854       -0.0004522506        0.0002389490
  C        -0.0001204617       -0.0000706566        0.0003304116
  C         0.0002915053       -0.0002691410        0.0000008738
  C         0.0004861005       -0.0000805671        0.0000256593
  H        -0.0008046960        0.0014494955       -0.0004427437
  H         0.0002285144        0.0015929275       -0.0008031182
  H         0.0001868402        0.0029074977       -0.0009836488
  H        -0.0010445996       -0.0010111015        0.0017440693
  C         0.0003397194        0.0000673206       -0.0002165341
  C        -0.0002705275       -0.0001369946        0.0003977276
  C        -0.0000675695       -0.0000309866       -0.0002434297
  C         0.0002706012       -0.0000072464        0.0000783654
  C        -0.0001229869       -0.0000079246        0.0002674100
  H         0.0005982209       -0.0003508731        0.0003527034
  H         0.0000214684       -0.0016056538        0.0007867031
  H         0.0001824722       -0.0018142637        0.0003157467
H   0.0010872018  0.0004685052  -0.0013183933
CP   0.0000133486  0.0001290538  0.0002030837
CP   -0.0003144856  -0.0000679152  -0.0003975665
CP   -0.0000582683  -0.0001686228  0.0000840871
CP   0.0000321135  0.0004543452  -0.0002739958
CP   -0.0002782215  0.0000961077  -0.0000766496
H   0.0007182172  -0.0002218269  -0.0026454847
H   -0.0004388110  0.0010685817  0.0020645155
H   -0.0001236620  0.0008691925  -0.0023255683
H   0.0011244196  0.0004255198  0.0000022102
CP   -0.0000673913  -0.0001234100  0.0005099048
CP   0.0001448032  -0.0002654822  -0.0000047026
CP   0.0002045369  0.0000924659  0.0003095774
CP   0.0002073424  -0.0002085341  -0.0001930849
CP   0.0002619440  0.0002979947  0.0000536975
H   -0.0004593829  0.0004672894  0.0006890415
H   -0.0001144084  -0.0024685333  -0.0017040690
H   -0.0007172646  -0.0020307448  0.0000278175
  H        -0.0002654241       -0.0011786024        0.0008758490
  C         0.0000690664        0.0000219980       -0.0001847762
  C         0.0001571542       -0.0000148443        0.0001732892
  C        -0.0000338412        0.0000384145        0.0000604663
  C        -0.0004446543        0.0002670964       -0.0002851588
  C        -0.0000041479       -0.0000538051       -0.0001228788
  H         0.0010405952        0.0002443189       -0.0011661715
  H        -0.0005141286        0.0022661594       -0.0008284681
  H        -0.0003976460        0.0023066293       -0.0009085392
  H        -0.0014329801        0.0002828649        0.0011941203
  C         0.0001104179        0.0000274304        0.0001027014
  C        -0.0000977642        0.0003307249        0.0003196180
  C        -0.0002110697        0.0004311993       -0.0000281745
  C        -0.0000595692        0.0001137746       -0.0000862984
  C         0.0000572215       -0.0000605163       -0.0000190587
  H         0.0012465645       -0.0013548349       -0.0010295641
  H         0.0017252963       -0.0013856749       -0.0005580586
  H         0.0013062960       -0.0013930283        0.0001000197
  H         0.0003393695       -0.0005315591       -0.0011132952
  C         0.0003225725        0.0002202581        0.0001223647
  C         0.0000025927       -0.0004138412        0.0000930216
  C        -0.0000401696        0.0000391118       -0.0002841608
  C         0.0000234282       -0.0002925205       -0.0000324537
  C         0.0002236927        0.0001849682       -0.0001876777
  H         0.0011527441        0.0008207239       -0.0005920826
  H         0.0010531209        0.0021552871        0.0009229805
  H        -0.0002026052        0.0024891437       -0.0001236132
  H         0.0008770947       -0.0007126861       -0.0016494142
  C         0.0002697676       -0.0001065645       -0.0000997803
  C        -0.0000383890        0.0002605814        0.0000531497
  C        -0.0001941548        0.0003146609        0.0000426174
  C         0.0000780363       -0.0000256692        0.0000150530
  C        -0.0000775379       -0.0001038180        0.0000750485
  H        -0.0011607537       -0.0019925087        0.0009741432
  H        -0.0002429959       -0.0026574107        0.0008051173
  H         0.0002365173       -0.0023453100       -0.0008118213
  H         0.0001710574        0.0009144283        0.0000761100
  C         0.0000789152       -0.0001291780        0.0001479726
  C        -0.0000822371       -0.0000095269       -0.0001658887
  C        -0.0001224012        0.0003670473        0.0001942822
  C         0.0000694678       -0.0001851024       -0.0004024593
  C         0.0001645999        0.0002148286       -0.0003777041
  H         0.0000214887       -0.0013063039       -0.0008964414
  H        -0.0003135903        0.0003656052        0.0001033605
  H        -0.0002699913       -0.0004767221       -0.0003676487
  H        -0.0000699055        0.0007518647        0.0014347869
  C        -0.0002288218        0.0000327614        0.0001157245
  C         0.0000208277        0.0003031756        0.0001290699
  C        -0.0000294139        0.0000638280        0.0003407885
  C        -0.0002200134        0.0004079746        0.0000564864
  C        -0.0001762388       -0.0003352504       -0.0001621602