#     Step Nr.          Time[fs]        Kin.[a.u.]          Temp[K]            Pot.[a.u.]        Cons Qty[a.u.]        UsedTime[s]
         0            0.000000        21.829436064       299.202747010        22.406735065        44.236171129         0.000000000
         1            0.100000        21.835140861       299.280939178        22.401026806        44.236167667         2.481929563
         2            0.200000        21.841468524       299.367668597        22.394695305        44.236163829         0.345237248
         3            0.300000        21.848358433       299.462104371        22.387801219        44.236159652         0.240421429
         4            0.400000        21.855744425       299.563339649        22.380410748        44.236155173         0.232749137
         5            0.500000        21.863555477       299.670400967        22.372594971        44.236150448         0.235002115
         6            0.600000        21.871716466       299.782258655        22.364429047        44.236145513         0.234461785
         7            0.700000        21.880148993       299.897838159        22.355991432        44.236140425         0.233888081
         8            0.800000        21.888772253       300.016031913        22.347362971        44.236135224         0.235487674
         9            0.900000        21.897503904       300.135711320        22.338626099        44.236130003         0.231848880
        10            1.000000        21.906260896       300.255738059        22.329863879        44.236124775         0.233380361
        11            1.100000        21.914960371       300.374976452        22.321159257        44.236119628         0.232285479
        12            1.200000        21.923520589       300.492306130        22.312594046        44.236114635         0.241882332
        13            1.300000        21.931861708       300.606632760        22.304248078        44.236109787         0.233104026
        14            1.400000        21.939906611       300.716899332        22.296198564        44.236105176         0.232840947
        15            1.500000        21.947581739       300.822097618        22.288519084        44.236100823         0.232896695
        16            1.600000        21.954817959       300.921280067        22.281278842        44.236096801         0.231396550
        17            1.700000        21.961551138       301.013567639        22.274541956        44.236093094         0.229194913
        18            1.800000        21.967722773       301.098158472        22.268367070        44.236089844         0.228408129
        19            1.900000        21.973280573       301.174335844        22.262806404        44.236086978         0.227802797
        20            2.000000        21.978178901       301.241474225        22.257905667        44.236084567         0.228101323
        21            2.100000        21.982379295       301.299046460        22.253703334        44.236082628         0.233506152
        22            2.200000        21.985850746       301.346627518        22.250230422        44.236081168         0.306983814
        23            2.300000        21.988569979       301.383898389        22.247510209        44.236080189         0.418298182
        24            2.400000        21.990521594       301.410647986        22.245558140        44.236079734         0.418750581
        25            2.500000        21.991698007       301.426772353        22.244381763        44.236079769         0.419739173
        26            2.600000        21.992099516       301.432275599        22.243980765        44.236080281         0.282590694
        27            2.700000        21.991734217       301.427268659        22.244347067        44.236081283         0.230850217
        28            2.800000        21.990617723       301.411965563        22.245465025        44.236082748         0.226828234
        29            2.900000        21.988772955       301.386680455        22.247311654        44.236084609         0.231707104
        30            3.000000        21.986229696       301.351821558        22.249857207        44.236086903         0.230668738
        31            3.100000        21.983024163       301.307885281        22.253065385        44.236089549         0.232831676
        32            3.200000        21.979198516       301.255449466        22.256894020        44.236092536         0.228430893
        33            3.300000        21.974800244       301.195165040        22.261295566        44.236095809         0.227191292
        34            3.400000        21.969881603       301.127748229        22.266217759        44.236099362         0.226173216
        35            3.500000        21.964498918       301.053971055        22.271604200        44.236103118         0.223599408
        36            3.600000        21.958711795       300.974650493        22.277395254        44.236107049         0.221040272
        37            3.700000        21.952582344       300.890637856        22.283528740        44.236111084         0.222163525
        38            3.800000        21.946174458       300.802808879        22.289940731        44.236115189         0.219971986
        39            3.900000        21.939553061       300.712053436        22.296566235        44.236119296         0.221805050
        40            4.000000        21.932783222       300.619263380        22.303340165        44.236123386         0.220709109
        41            4.100000        21.925929427       300.525322602        22.310197951        44.236127378         0.221381164
        42            4.200000        21.919054898       300.431097627        22.317076365        44.236131263         0.221720959
        43            4.300000        21.912220743       300.337426043        22.323914239        44.236134982         0.220107220
        44            4.400000        21.905485312       300.245107598        22.330653155        44.236138467         0.221105519
        45            4.500000        21.898903537       300.154895237        22.337238171        44.236141708         0.221098146
        46            4.600000        21.892526225       300.067485309        22.343618435        44.236144659         0.220071279
        47            4.700000        21.886399581       299.983511145        22.349747727        44.236147307         0.220836190
        48            4.800000        21.880564767       299.903536922        22.355584820        44.236149587         0.220679250
        49            4.900000        21.875057415       299.828051003        22.361094089        44.236151504         0.219832741
        50            5.000000        21.869907276       299.757461200        22.366245768        44.236153044         0.221205816
        51            5.100000        21.865138032       299.692092080        22.371016174        44.236154206         0.220335674
        52            5.200000        21.860767043       299.632181605        22.375387919        44.236154962         0.220524287
        53            5.300000        21.856805229       299.577879445        22.379350122        44.236155352         0.221475530
        54            5.400000        21.853257140       299.529247947        22.382898157        44.236155297         0.221045714
        55            5.500000        21.850121004       299.486262857        22.386033870        44.236154875         0.220856088
        56            5.600000        21.847388886       299.448815375        22.388765175        44.236154060         0.220331222
        57            5.700000        21.845046818       299.416714077        22.391106074        44.236152891         0.222502681
        58            5.800000        21.843075184       299.389690105        22.393076232        44.236151417         0.220655966
        59            5.900000        21.841449131       299.367402781        22.394700485        44.236149616         0.220507854
        60            6.000000        21.840138915       299.349444453        22.396008620        44.236147535         0.220552682
        61            6.100000        21.839110436       299.335347718        22.397034769        44.236145205         0.220954563
        62            6.200000        21.838325777       299.324592874        22.397816893        44.236142670         0.220119274
        63            6.300000        21.837743800       299.316616072        22.398396199        44.236139999         0.221411958
        64            6.400000        21.837320828       299.310818658        22.398816388        44.236137216         0.220618027
        65            6.500000        21.837011288       299.306575975        22.399123067        44.236134355         0.222188248
        66            6.600000        21.836768338       299.303246013        22.399363082        44.236131420         0.224517263
        67            6.700000        21.836544610       299.300179508        22.399583883        44.236128493         0.218748526
        68            6.800000        21.836292878       299.296729176        22.399832743        44.236125622         0.219464396
        69            6.900000        21.835966775       299.292259482        22.400156072        44.236122847         0.219600675
        70            7.000000        21.835521432       299.286155430        22.400598794        44.236120226         0.221633473
        71            7.100000        21.834914178       299.277832179        22.401203593        44.236117771         0.221519943
        72            7.200000        21.834105180       299.266743735        22.402010358        44.236115538         0.220075537
        73            7.300000        21.833057853       299.252388662        22.403055672        44.236113525         0.226118949
        74            7.400000        21.831739492       299.234318689        22.404372300        44.236111792         0.216605356
        75            7.500000        21.830121809       299.212146102        22.405988534        44.236110343         0.216396192
        76            7.600000        21.828181386       299.185549901        22.407927857        44.236109242         0.218053335
        77            7.700000        21.825899842       299.154278182        22.410208630        44.236108472         0.218376161
        78            7.800000        21.823264183       299.118152814        22.412843840        44.236108024         0.214918749
        79            7.900000        21.820267079       299.077073336        22.415840838        44.236107917         0.213447856
        80            8.000000        21.816906908       299.031017525        22.419201287        44.236108195         0.214163746
        81            8.100000        21.813187876       298.980043017        22.422920965        44.236108841         0.213747202
        82            8.200000        21.809120002       298.924287154        22.426989848        44.236109850         0.216138453
        83            8.300000        21.804719030       298.863965719        22.431392164        44.236111194         0.215433654
        84            8.400000        21.800006151       298.799369175        22.436106704        44.236112855         0.214392934
        85            8.500000        21.795007790       298.730859691        22.441107022        44.236114812         0.215149665
        86            8.600000        21.789755332       298.658867454        22.446361722        44.236117054         0.215537886
        87            8.700000        21.784284633       298.583883930        22.451834917        44.236119551         0.214631213
        88            8.800000        21.778635615       298.506456285        22.457486630        44.236122245         0.218009430
        89            8.900000        21.772851798       298.427181037        22.463273340        44.236125138         0.218972849
        90            9.000000        21.766979715       298.346695981        22.469148484        44.236128199         0.217252012
        91            9.100000        21.761068304       298.265671887        22.475063043        44.236131347         0.219876324
        92            9.200000        21.755168303       298.184804171        22.480966275        44.236134578         0.218847460
        93            9.300000        21.749331537       298.104803183        22.486806299        44.236137836         0.221105613
        94            9.400000        21.743610272       298.026385306        22.492530825        44.236141097         0.220659879
        95            9.500000        21.738056606       297.950264595        22.498087677        44.236144283         0.218538392
        96            9.600000        21.732721636       297.877141415        22.503425727        44.236147362         0.219237347
        97            9.700000        21.727654933       297.807695209        22.508495379        44.236150312         0.217271917
        98            9.800000        21.722903810       297.742574471        22.513249247        44.236153057         0.216953071
        99            9.900000        21.718512640       297.682387383        22.517642930        44.236155569         1.075795514
       100           10.000000        21.714522418       297.627695848        22.521635428        44.236157846         0.221369445
       101           10.100000        21.710970119       297.579006661        22.525189731        44.236159850         0.223447143
       102           10.200000        21.707888226       297.536765029        22.528273311        44.236161537         0.223318002
       103           10.300000        21.705304302       297.501348762        22.530858596        44.236162897         0.223140134
       104           10.400000        21.703240594       297.473062779        22.532923298        44.236163892         0.210398750
       105           10.500000        21.701713756       297.452135351        22.534450760        44.236164516         0.209629823
       106           10.600000        21.700734624       297.438714987        22.535430140        44.236164765         0.209688601
       107           10.700000        21.700308008       297.432867613        22.535856630        44.236164638         0.218468538
       108           10.800000        21.700432668       297.434576253        22.535731456        44.236164124         0.218071541
       109           10.900000        21.701101290       297.443740649        22.535061953        44.236163243         0.216320359
       110           11.000000        21.702300487       297.460177308        22.533861510        44.236161997         0.211612796
       111           11.100000        21.704011080       297.483623363        22.532149303        44.236160383         0.211223585
       112           11.200000        21.706208311       297.513739463        22.529950119        44.236158429         0.210345964
       113           11.300000        21.708862080       297.550113051        22.527294113        44.236156192         0.210861464
       114           11.400000        21.711937406       297.592264677        22.524216271        44.236153678         0.210844742
       115           11.500000        21.715394862       297.639653915        22.520756037        44.236150900         0.211222095
       116           11.600000        21.719191021       297.691685543        22.516956878        44.236147899         0.210803975
       117           11.700000        21.723279068       297.747717901        22.512865657        44.236144724         0.211296426
       118           11.800000        21.727609460       297.807071947        22.508531965        44.236141425         0.211011199
       119           11.900000        21.732130447       297.869038351        22.504007577        44.236138024         0.210639570
       120           12.000000        21.736788755       297.932886931        22.499345836        44.236134591         0.211592191
       121           12.100000        21.741530439       297.997878303        22.494600711        44.236131150         0.211603697
       122           12.200000        21.746325413       298.063600079        22.489786669        44.236112082         0.210893874
       123           12.300000        21.751117993       298.129289053        22.484990773        44.236108766         0.210726634
       124           12.400000        21.755831410       298.193892973        22.480274163        44.236105573         0.212003284
       125           12.500000        21.760415556       298.256725061        22.475687002        44.236102558         0.211691549
       126           12.600000        21.764823107       298.317136668        22.471276653        44.236099760         0.211222829
       127           12.700000        21.769010126       298.374525586        22.467087101        44.236097226         0.210793370
       128           12.800000        21.772936691       298.428344616        22.463158291        44.236094982         0.211399545
       129           12.900000        21.776567447       298.478109165        22.459525569        44.236093016         0.210520045
       130           13.000000        21.779872079       298.523403737        22.456219337        44.236091416         0.211236916
       131           13.100000        21.782825784       298.563888378        22.453264394        44.236090178         0.211420359
       132           13.200000        21.785409548       298.599302445        22.450679801        44.236089348         0.215136447
       133           13.300000        21.787610530       298.629469959        22.448478356        44.236088886         0.211045064
       134           13.400000        21.789422217       298.654301651        22.446666625        44.236088842         0.211174031
       135           13.500000        21.790844482       298.673795766        22.445244717        44.236089199         0.210774172
       136           13.600000        21.791883673       298.688039327        22.444206301        44.236089974         0.210601470
       137           13.700000        21.792552574       298.697207545        22.443538561        44.236091135         0.211596823
       138           13.800000        21.792870276       298.701562090        22.443222404        44.236092680         0.210960481
       139           13.900000        21.792861902       298.701447314        22.443232686        44.236094588         0.211241257
       140           14.000000        21.792558379       298.697287102        22.443538478        44.236096856         0.210857130
       141           14.100000        21.791996011       298.689579076        22.444103429        44.236099441         0.210457562
       142           14.200000        21.791216018       298.678888182        22.444886245        44.236102263         0.210955445
       143           14.300000        21.790264050       298.665840147        22.445841308        44.236105358         0.210825521
       144           14.400000        21.789189599       298.651113301        22.446919038        44.236108637         0.210918097
       145           14.500000        21.788045370       298.635430048        22.448066718        44.236112087         0.210409504
       146           14.600000        21.786886566       298.619547032        22.449229071        44.236115637         0.211051697
       147           14.700000        21.785770173       298.604245313        22.450349109        44.236119282         0.209648887
       148           14.800000        21.784754295       298.590321291        22.451368638        44.236122933         0.209832045
       149           14.900000        21.783897303       298.578575029        22.452229277        44.236126580         0.211403995
       150           15.000000        21.783257048       298.569799439        22.452873095        44.236130143         0.211270477
       151           15.100000        21.782890147       298.564770554        22.453243405        44.236133551         0.217798189
       152           15.200000        21.782851209       298.564236862        22.453285600        44.236136809         0.212829036
       153           15.300000        21.783192105       298.568909305        22.452947755        44.236139859         0.212769319
       154           15.400000        21.783961231       298.579451248        22.452181410        44.236142641         0.212642854
       155           15.500000        21.785202782       298.596468430        22.450942338        44.236145120         0.213571886
       156           15.600000        21.786956152       298.620500800        22.449191112        44.236147264         0.215296374
       157           15.700000        21.789255422       298.652015498        22.446893626        44.236149049         0.212711329
       158           15.800000        21.792128760       298.691398589        22.444021667        44.236150428         0.212791367
       159           15.900000        21.795597996       298.738949284        22.440553395        44.236151391         0.215602926
       160           16.000000        21.799678253       298.794874874        22.436473675        44.236151928         0.215234637
       161           16.100000        21.804377680       298.859287044        22.431774318        44.236151997         0.218307630
       162           16.200000        21.809697292       298.932199725        22.426454310        44.236151602         0.216826562
       163           16.300000        21.815630692       299.013525213        22.420520082        44.236150774         0.219918741
       164           16.400000        21.822164065       299.103074170        22.413985407        44.236149473         0.218715672
       165           16.500000        21.829276388       299.200558437        22.406871318        44.236147706         0.223705062
       166           16.600000        21.836939423       299.305590966        22.399206090        44.236145512         0.219753445
       167           16.700000        21.845117837       299.417687490        22.391025091        44.236142928         0.223148623
       168           16.800000        21.853769626       299.536272287        22.382370289        44.236139916         0.223361155
       169           16.900000        21.862846382       299.660681836        22.373290165        44.236136547         0.224515187
       170           17.000000        21.872293801       299.790171841        22.363839040        44.236132841         0.223987666
       171           17.100000        21.882052352       299.923926332        22.354076487        44.236128839         0.222897239
       172           17.200000        21.892057699       300.061063514        22.344066874        44.236124573         0.224314670
       173           17.300000        21.902241362       300.200644769        22.333878723        44.236120085         0.223191230
       174           17.400000        21.912531473       300.341685028        22.323583966        44.236115439         0.225341340
       175           17.500000        21.922853507       300.483162844        22.313257180        44.236110687         0.223857931
       176           17.600000        21.933131037       300.624030665        22.302974817        44.236105853         0.222578526
       177           17.700000        21.943286524       300.763225723        22.292814473        44.236100997         0.215311828
       178           17.800000        21.953242143       300.899681322        22.282854039        44.236096182         0.210527090
       179           17.900000        21.962920645       301.032338629        22.273170799        44.236091444         0.210527521
       180           18.000000        21.972246118       301.160157190        22.263840724        44.236086842         0.209158742
       181           18.100000        21.981144800       301.282125991        22.254937641        44.236082441         0.210518518
       182           18.200000        21.989545945       301.397275359        22.246532315        44.236078260         0.208590314
       183           18.300000        21.997382596       301.504687549        22.238691764        44.236074361         0.210792345
       184           18.400000        22.004592284       301.603506330        22.231478506        44.236070790         0.216970021
       185           18.500000        22.011117648       301.692945520        22.224949924        44.236067572         0.209829223
       186           18.600000        22.016907132       301.772298442        22.219157617        44.236064749         0.210874702
       187           18.700000        22.021915521       301.840945361        22.214146838        44.236062359         0.208884457
       188           18.800000        22.026104466       301.898360673        22.209955961        44.236060427         1.002215737
       189           18.900000        22.029442898       301.944118519        22.206616075        44.236058973         0.201625782
       190           19.000000        22.031907534       301.977899790        22.204150605        44.236058139         0.198722778
       191           19.100000        22.033501327       301.999744930        22.202563170        44.236064497         0.197905668
       192           19.200000        22.034218150       302.009569990        22.201845315        44.236063465         0.197436480
       193           19.300000        22.034040087       302.007129392        22.202023882        44.236063969         0.198511425
       194           19.400000        22.032973808       301.992514555        22.203091193        44.236065002         0.197909429
       195           19.500000        22.031035606       301.965948800        22.205030898        44.236066504         0.197654153
       196           19.600000        22.028249684       301.927763870        22.207818834        44.236068518         0.197466042
       197           19.700000        22.024647694       301.878393592        22.211423268        44.236070963         0.205231496
       198           19.800000        22.020268427       301.818369659        22.215805380        44.236073807         0.200473421
       199           19.900000        22.015157493       301.748317197        22.220919553        44.236077046         0.208963734
       200           20.000000        22.009366719       301.668946601        22.226713931        44.236080650         0.210429983
