13824
 i =        0, time =        0.000, E =        36.7279745986
  C         0.0000603057       -0.0000058059        0.0002529483
  C         0.0000764325       -0.0004006276       -0.0000914685
  C         0.0000101828       -0.0001212520        0.0003179922
  C        -0.0000392916       -0.0002572564        0.0000676735
  C        -0.0001030319       -0.0002106738        0.0000053765
  H         0.0005392514        0.0006617476       -0.0014231126
  H        -0.0013114247        0.0019958402        0.0011886584
  H         0.0020348108        0.0026217179       -0.0007749720
  H         0.0008645882        0.0017493948        0.0004650358
  C        -0.0001878755        0.0001357905       -0.0000169709
  C         0.0000124125       -0.0002063271        0.0002657257
  C         0.0000026998        0.0003746586        0.0000627022
  C         0.0000361187        0.0001974348       -0.0002606513
  C        -0.0003029176       -0.0000482465       -0.0000379813
  H         0.0010289253        0.0011157589        0.0004577650
  H         0.0008304364       -0.0023133644       -0.0006328030
  H         0.0001813638       -0.0031197576       -0.0001319518
  H        -0.0001887456        0.0006273068       -0.0008211240
  C         0.0003217188        0.0002268032        0.0002149162
  C         0.0002054270       -0.0003839413       -0.0003119435
  C        -0.0000236874       -0.0004702895        0.0000964242
  C        -0.0002397606       -0.0000124597        0.0002059411
  C        -0.0000067475       -0.0004952658       -0.0002391501
  H        -0.0006253847       -0.0002551012        0.0000727595
  H        -0.0002640519        0.0019637149       -0.0001496867
  H        -0.0008371689        0.0015304164       -0.0014212994
  H        -0.0004114386       -0.0007047242        0.0016104150
  C         0.0000063354       -0.0004083541       -0.0000384257
  C        -0.0001537133        0.0000472295       -0.0002307591
  C        -0.0000008405        0.0004997251       -0.0001774079
  C        -0.0002504659        0.0001768057       -0.0004825105
  C         0.0001155693       -0.0003035947       -0.0000402583
  H         0.0009761259       -0.0023468518       -0.0003401888
  H         0.0000365464       -0.0021136014        0.0006376893
  H        -0.0002523641       -0.0021412613        0.0014412912
  H         0.0009072036       -0.0005841007       -0.0008334442
  C        -0.0001356314        0.0001195857       -0.0000992505
  C        -0.0000309458       -0.0004307873        0.0000458944
  C        -0.0001546528       -0.0000641479       -0.0001020418
  C        -0.0002520719        0.0000734738       -0.0000695479
  C         0.0000176314       -0.0003618164        0.0000300115
  H         0.0003692237       -0.0009481967       -0.0012579451
  H         0.0003322436        0.0018690606        0.0007165524
  H        -0.0008617124        0.0002755973       -0.0009975859
  H         0.0006078787        0.0007247427       -0.0000795772
  C         0.0000336122       -0.0000357458        0.0001990282
  C        -0.0001395461       -0.0000313969       -0.0000598268
  C        -0.0001811917       -0.0001917143       -0.0002373099
  C         0.0000442676        0.0001635555       -0.0002692686
  C        -0.0000488445        0.0000097107        0.0003307122
  H        -0.0006750786       -0.0001240626        0.0024894893
  H         0.0001572351        0.0000220410       -0.0006185823
  H        -0.0005744829       -0.0025441822        0.0001596740
  H        -0.0005311009       -0.0010032620       -0.0010360714
  C         0.0002379122       -0.0000079881       -0.0001077678
  C        -0.0000561197       -0.0001683863        0.0002373623
  C         0.0000655468        0.0000896625       -0.0001509927
  C        -0.0000062297        0.0001594802       -0.0000881605
  C        -0.0001443734       -0.0000801903        0.0001128792
  H        -0.0020059350        0.0020435119        0.0003894055
  H        -0.0005794005        0.0000298477       -0.0003457474
  H        -0.0000421692        0.0001116104       -0.0004811166
  H        -0.0009058534        0.0005903844        0.0002430314
  C        -0.0002377615        0.0001637771       -0.0001534657
  C         0.0004604969       -0.0002512238        0.0003602561
  C         0.0002584207       -0.0001716450       -0.0002477387
  C        -0.0000489646       -0.0001132081        0.0003717742
  C        -0.0002047393        0.0001020977       -0.0004013708
  H         0.0007105863        0.0016963338       -0.0018511332
  H         0.0004947904       -0.0007066312        0.0017055296
  H         0.0015204099       -0.0014881298       -0.0004961243
  H         0.0011208302        0.0006323888       -0.0009054527
  C         0.0001283344        0.0004142450       -0.0002263247
  C        -0.0002281278       -0.0005018741        0.0001026354
  C        -0.0002913955        0.0000927064        0.0003215468
  C         0.0000925235       -0.0001310258       -0.0001473311
  C         0.0000261580       -0.0007055357       -0.0003507041
  H         0.0013886342       -0.0000694503        0.0012826626
  H         0.0002254204        0.0025592440       -0.0004337853
  H        -0.0003015188        0.0003717092        0.0000523657
  H        -0.0007212096       -0.0030733402       -0.0019153418
  C        -0.0000649571        0.0002612403       -0.0000918579
  C        -0.0001386541        0.0001519364       -0.0000691596
  C        -0.0001715082        0.0000677883        0.0000833384
  C        -0.0001064461        0.0003175744       -0.0002676006
  C        -0.0001315090       -0.0001072395       -0.0000648399
  H        -0.0004174039       -0.0008052189        0.0016289274
  H        -0.0000234662       -0.0001475221       -0.0001642729
  H        -0.0001241510       -0.0011673402        0.0003095953
  H        -0.0009773441       -0.0007071945        0.0002293655
  C        -0.0000011163        0.0004366987        0.0006317119
  C         0.0002481209       -0.0001979356       -0.0003920707
  C        -0.0000943833        0.0000901699       -0.0001349154
  C         0.0000033623       -0.0000501752        0.0005209095
  C        -0.0001014175       -0.0002343407       -0.0000736765
  H         0.0002553422        0.0019519179       -0.0016671879
  H        -0.0010168466        0.0004548360       -0.0003208793
  H        -0.0003955626        0.0019657048       -0.0005932581
  H        -0.0002035937       -0.0004877051        0.0013992382
  C         0.0003415195       -0.0002170381       -0.0000151946
  C        -0.0000234463       -0.0001594024       -0.0000051514
  C         0.0001537946       -0.0000035643       -0.0001192303
  C        -0.0001048554       -0.0001413940        0.0004507154
  C        -0.0003132568        0.0000907472        0.0000868056
  H         0.0012830871       -0.0012557974       -0.0016277700
  H         0.0000670345       -0.0015069103        0.0002718037
  H         0.0006833231       -0.0007454256       -0.0001776109
  H         0.0004975949       -0.0003351592       -0.0006952346
  C         0.0000286150       -0.0001180179       -0.0002613403
  C        -0.0002192866       -0.0000441613        0.0001961174
  C         0.0001691784       -0.0002328853       -0.0002627019
  C        -0.0003661644        0.0000434014       -0.0001798918
  C        -0.0002938451        0.0000455448        0.0002530450
  H        -0.0007652780        0.0019817183       -0.0010136676
  H         0.0000912541        0.0007646625        0.0005037753
  H        -0.0004761524        0.0013373758       -0.0006287125
  H         0.0019513007        0.0003330806       -0.0016748873
  C        -0.0000531183        0.0000130441       -0.0001474076
  C         0.0000276226        0.0003877087        0.0000381268
  C         0.0000863200        0.0000804660        0.0000226138
  C        -0.0000181266        0.0001790695       -0.0000631754
  C        -0.0003783919       -0.0002273225       -0.0000298312
  H        -0.0010419160       -0.0001209092        0.0003863802
  H         0.0003358145       -0.0021200661       -0.0011578508
  H        -0.0002091544       -0.0017615987        0.0000592093
  H         0.0002119413        0.0004626344       -0.0016582729
  C        -0.0002521393        0.0000538321        0.0003800666
  C         0.0002882293       -0.0002164944        0.0000724490
  C         0.0002424144       -0.0001169848       -0.0001613382
  C        -0.0001182104        0.0001245421        0.0002249034
  C         0.0003201814       -0.0000951252        0.0002966618
  H         0.0005991559        0.0015651540       -0.0013803837
  H        -0.0012429711        0.0012521427        0.0003794476
  H        -0.0006287838        0.0020335150       -0.0020173022
  H        -0.0005850078        0.0000359611        0.0016397793
  C        -0.0001258946        0.0001237089        0.0000167375
  C        -0.0003496588        0.0001202367       -0.0001252855
  C        -0.0000498035       -0.0000487939       -0.0002158633
  C        -0.0000972825       -0.0002078508        0.0003501232
  C         0.0002615004       -0.0001261148        0.0000156690
  H         0.0007298127       -0.0007613618       -0.0012764479
  H         0.0005627559       -0.0021784431        0.0013146020
  H         0.0006059672       -0.0016516648        0.0009505102
  H        -0.0000572412        0.0002690623        0.0007011223
  C         0.0001800682        0.0003009390        0.0000720892
  C        -0.0000472892       -0.0003681460       -0.0003192604
  C        -0.0002228050       -0.0000612989        0.0006910383
  C         0.0001657685        0.0004666254       -0.0003347983
  C         0.0004520263       -0.0003297938        0.0002265625
  H         0.0016455291        0.0009505322        0.0002643867
  H         0.0003876508        0.0020840535       -0.0013095807
  H         0.0000077914        0.0009942806        0.0011299236
  H         0.0000319685       -0.0001471824       -0.0014642306
  C         0.0001845519        0.0000284550        0.0000908477
  C        -0.0002369067       -0.0000777296       -0.0006431115
  C         0.0001556546        0.0001277456        0.0003700034
  C        -0.0000471732        0.0001048466       -0.0000793954
  C        -0.0002317902        0.0003449856        0.0001319070
  H         0.0002216597        0.0002884093        0.0015239724
  H        -0.0015438485       -0.0015982051        0.0003814702
  H         0.0001694363       -0.0010114301       -0.0013903905
  H        -0.0012726651       -0.0006174184        0.0016313999
  C        -0.0002662050        0.0003172696        0.0003499404
  C         0.0000395454       -0.0002890630       -0.0001390809
  C         0.0000838233       -0.0004019339       -0.0000372341
  C         0.0001820690        0.0000920246        0.0003719516
  C        -0.0000897199       -0.0003591067        0.0000364772
  H        -0.0001954962        0.0005135011       -0.0009873849
  H         0.0005067290        0.0010540942        0.0001351633
  H        -0.0000855762        0.0025656023       -0.0012291076
  H        -0.0013021888        0.0010974490        0.0028363752
  C         0.0001709033        0.0001849044       -0.0004203982
  C        -0.0003772652       -0.0001158807       -0.0001343927
  C         0.0000587296        0.0002451982        0.0000233148
  C        -0.0001063295       -0.0000145953        0.0001686348
  C         0.0003825221        0.0000878991        0.0000382982
  H         0.0013640235       -0.0017353972       -0.0002874779
  H         0.0001238419       -0.0010351826       -0.0003836105
  H        -0.0007420905       -0.0006545498        0.0003378312
  H        -0.0004731497       -0.0007922283       -0.0006668186
  C        -0.0000482725        0.0000524599       -0.0003283381
  C        -0.0003187783       -0.0002245914        0.0003660220
  C         0.0000388451       -0.0002777307       -0.0000806525
  C        -0.0002628015        0.0001016843       -0.0000358711
  C         0.0001003610        0.0000707149        0.0003474641
  H         0.0007763136       -0.0005720243        0.0005669660
  H         0.0002866901        0.0018322764       -0.0001482207
  H         0.0017097309        0.0026547750        0.0006201905
  H        -0.0000549957       -0.0012190613       -0.0002348816
  C         0.0002915272        0.0004198989       -0.0002726814
  C        -0.0002199978        0.0001050229        0.0000307772
  C        -0.0000171647        0.0000144482        0.0003701023
  C         0.0000805689        0.0001076338       -0.0001278328
  C         0.0001480714       -0.0004941113        0.0003170279
  H        -0.0005351922       -0.0015536283       -0.0009177756
  H        -0.0002488150       -0.0017648165        0.0002499504
  H        -0.0011008979       -0.0007394841       -0.0002539074
  H         0.0002564913       -0.0006336236        0.0008592125
  C         0.0000933712        0.0001493705       -0.0000719215
  C         0.0002761236       -0.0000835258        0.0003189801
  C         0.0003708965       -0.0000789933        0.0000663232
  C        -0.0001740460       -0.0001574854        0.0003697495
  C        -0.0000914931       -0.0004674419       -0.0000250884
  H        -0.0014514929        0.0013882439        0.0018781864
  H         0.0004780115       -0.0009367647       -0.0007144435
  H        -0.0006387357        0.0024532853       -0.0005775073
  H         0.0000581550        0.0014248571        0.0016887120
  C        -0.0002641714        0.0002028086       -0.0003258632
  C         0.0003435723        0.0003182167       -0.0001822727
  C        -0.0002160772        0.0002948864       -0.0003054996
  C        -0.0000878116        0.0000812127       -0.0000109029
  C        -0.0000720412       -0.0000896574       -0.0000836164
  H        -0.0002335612       -0.0010108000        0.0000888589
  H         0.0009411848       -0.0014403431       -0.0001115235
  H         0.0004972034       -0.0015304418        0.0016573374
  H        -0.0003793622        0.0006763791        0.0011824385
  C         0.0001774346        0.0000319396       -0.0003430548
  C        -0.0001694761       -0.0000627913        0.0004957809
  C         0.0000121222       -0.0000611408       -0.0002312055
  C        -0.0004021322        0.0000762481       -0.0003198693
  C         0.0001093739        0.0000492685        0.0000624769
  H        -0.0004688763        0.0001497750        0.0005279910
  H         0.0005237810        0.0011683799        0.0001868904
  H        -0.0001651986        0.0026116010        0.0004997683
  H         0.0005171380        0.0003337019       -0.0014149808
  C         0.0000171358        0.0001784815       -0.0000048425
  C        -0.0001274255        0.0003972952       -0.0000178399
  C         0.0000189543       -0.0000303716        0.0001957819
  C         0.0000776030        0.0002352338        0.0000605345
  C        -0.0001306526       -0.0003904681        0.0003307902
  H        -0.0009288437       -0.0005969227        0.0009554978
  H         0.0007127597       -0.0021152338       -0.0003742644
  H         0.0000603233       -0.0008614596        0.0000156853
  H         0.0011465819        0.0000178605        0.0000366233
  C        -0.0002493227       -0.0000342306        0.0002008844
  C         0.0002457270       -0.0003601634       -0.0005400695
  C         0.0000909727       -0.0000315399        0.0003231229
  C         0.0001605276       -0.0001996389       -0.0000737834
  C        -0.0002329921       -0.0000038298       -0.0001065809
  H        -0.0004082744        0.0005521433        0.0010208042
  H        -0.0019061935        0.0016236577       -0.0009741783
  H         0.0007785840        0.0019022358        0.0000739203
  H        -0.0009832573       -0.0012137253        0.0013209468
  C        -0.0001660871       -0.0001407185       -0.0000673138
  C         0.0000878181        0.0001745561        0.0001336262
  C        -0.0002008305        0.0000776726       -0.0001240521
  C        -0.0002182497        0.0003800963       -0.0000871937
  C         0.0002216947       -0.0001497385       -0.0000209672
  H         0.0011634018       -0.0017382634       -0.0003469829
  H         0.0006858977       -0.0010676751        0.0002187025
  H         0.0004580465       -0.0020161404        0.0008660143
  H        -0.0002570378        0.0008323009       -0.0002289186
  C         0.0000648177        0.0003161180       -0.0000901458
  C         0.0001241201        0.0001149397        0.0000434231
  C        -0.0000096277       -0.0001512473       -0.0001603781
  C         0.0001042669        0.0000283384       -0.0004331689
  C         0.0001500517       -0.0000661357       -0.0001253855
  H         0.0008279046        0.0011756219       -0.0024141977
  H         0.0000070988        0.0003135436        0.0013493856
  H         0.0010407495        0.0018623375        0.0012257036
  H         0.0002681586       -0.0007360658       -0.0029438880
  C         0.0001990193       -0.0001482409       -0.0003403132
  C         0.0001320836        0.0001530149        0.0000417729
  C         0.0000144422       -0.0000352347        0.0002467745
  C         0.0001491240        0.0000461083       -0.0001662051
  C        -0.0001745117       -0.0001803969        0.0001303439
  H        -0.0009765822       -0.0008054183        0.0008582684
  H        -0.0007031211       -0.0014818157       -0.0004300490
  H        -0.0002027618        0.0002266549        0.0003338238
  H         0.0003072141       -0.0008736583        0.0000759424
  C        -0.0000079154        0.0001831935       -0.0000640103
  C         0.0001530765       -0.0004120683       -0.0001565785
  C        -0.0002090972        0.0001038458       -0.0002635218
  C        -0.0000180489       -0.0000322112        0.0001422630
  C        -0.0002244799       -0.0000104856       -0.0000612426
  H        -0.0002303168        0.0009516074        0.0010791845
  H         0.0016225780        0.0016464800       -0.0008743749
  H         0.0003297101        0.0006241106       -0.0000345912
  H        -0.0000880391        0.0003443879       -0.0005436808
  C         0.0000381418       -0.0001410937       -0.0000192732
  C         0.0003682889       -0.0002177397       -0.0000687431
  C         0.0000584863        0.0002836937       -0.0002211798
  C        -0.0000440696       -0.0000253276        0.0002467715
  C         0.0002045159       -0.0002120735       -0.0001677908
  H         0.0004108649        0.0006093397       -0.0017624441
  H        -0.0004961762       -0.0020938332        0.0008173509
  H        -0.0002514199       -0.0016376508        0.0010715811
  H         0.0005216645        0.0000169340        0.0003226491
  C         0.0002031902       -0.0000218557        0.0001787684
  C         0.0000089023       -0.0000790361       -0.0001111910
  C        -0.0000477696       -0.0000541075        0.0001983961
  C        -0.0000088368        0.0002204819       -0.0001540497
  C         0.0001950092       -0.0003786392       -0.0001410502
  H        -0.0001474214       -0.0005844615        0.0002139366
  H         0.0001720005        0.0023418260        0.0008840345
  H         0.0002495684        0.0025588248        0.0009017705
  H         0.0010270242        0.0016846565       -0.0014330389
  C         0.0001254933       -0.0002307108       -0.0000814507
  C         0.0000532140       -0.0000448776       -0.0001915929
  C         0.0002285000        0.0003291445        0.0000534054
  C        -0.0000960668        0.0003255924       -0.0002808772
  C        -0.0002732793       -0.0000809793        0.0003612343
  H         0.0003695190        0.0001047275        0.0014196637
  H        -0.0013952697       -0.0021450991        0.0000123215
  H        -0.0004513502       -0.0029276707       -0.0010580945
  H        -0.0006492762       -0.0017801561       -0.0014111014
  C        -0.0003181916       -0.0001085936        0.0001018252
  C         0.0001229845       -0.0003593877       -0.0000933291
  C         0.0000998916        0.0005856332       -0.0004844757
  C        -0.0000803247       -0.0002568091        0.0000215751
  C         0.0001719181        0.0000593069       -0.0001877498
  H        -0.0004767197        0.0012522880       -0.0008105803
  H         0.0000284546        0.0001749144        0.0006211332
  H         0.0011473281        0.0015376918       -0.0013645048
  H        -0.0000636112        0.0006066141        0.0009881842
  C         0.0002091109        0.0000506787       -0.0001848344
  C        -0.0000033604        0.0000566380        0.0003022807
  C        -0.0002265030       -0.0001388179       -0.0001409691
  C        -0.0000330953        0.0000004137        0.0002634385
  C        -0.0002888722       -0.0001393946       -0.0001401057
  H         0.0009433944       -0.0005641823       -0.0010657439
  H        -0.0001496670       -0.0000731494        0.0005863998
  H        -0.0008040102       -0.0009573982        0.0001842882
  H        -0.0001453136        0.0007887059       -0.0010623140
  C        -0.0001546091       -0.0000695712        0.0001174598
  C        -0.0000690039       -0.0000259485        0.0001387942
  C         0.0001265637        0.0000010392       -0.0002766539
  C         0.0003094744        0.0001060908       -0.0004158136
  C         0.0001335376       -0.0000868669       -0.0001651701
  H         0.0009050884       -0.0001643296       -0.0005606303
  H         0.0005194202        0.0008953411        0.0011464034
  H         0.0010378513        0.0025740370        0.0003665608
  H         0.0016515580        0.0013502492       -0.0005736064
  C         0.0002592644       -0.0000891583       -0.0002384707
  C        -0.0000568118        0.0003456829        0.0001226032
  C         0.0000641673        0.0000917260        0.0003127685
  C         0.0004512344       -0.0000764639       -0.0003512410
  C        -0.0001813544       -0.0001818063       -0.0000623374
  H        -0.0001108229        0.0008661561        0.0007567115
  H        -0.0015928327       -0.0011830566       -0.0008774206
  H         0.0002108155       -0.0002697455       -0.0007384974
  H        -0.0020439974       -0.0005863901        0.0006776200
  C        -0.0004327513        0.0000627375        0.0003728837
  C         0.0001323285       -0.0002037595       -0.0003082335
  C        -0.0004242061        0.0001794732        0.0001436184
  C         0.0000961849       -0.0001407999        0.0001085366
  C         0.0001809368       -0.0000350201        0.0004989324
  H         0.0003382812        0.0007511842        0.0007786531
  H         0.0012484542        0.0010984061        0.0003970373
  H        -0.0014919597        0.0013386096       -0.0013361908
  H        -0.0008167178       -0.0015357183        0.0006902794
  C         0.0000451319        0.0001815746       -0.0000705634
  C         0.0001847801        0.0004086410       -0.0001357635
  C        -0.0001352675        0.0000153395       -0.0001437574
  C        -0.0000501477        0.0001256295        0.0000632306
  C         0.0000837382       -0.0003720723        0.0001653375
  H         0.0002032163       -0.0009838363        0.0017428023
  H         0.0002751507       -0.0026233995       -0.0012378076
  H         0.0005695793       -0.0016476048        0.0022839709
  H         0.0009468950        0.0012171953       -0.0022337651
  C         0.0001934133        0.0001229447       -0.0000112469
  C        -0.0003276137       -0.0003771537       -0.0000894341
  C        -0.0002737574       -0.0001030100        0.0003967943
  C         0.0003191777        0.0003187066       -0.0000420163
  C        -0.0000671172        0.0000007659        0.0000160683
  H        -0.0005058614        0.0005580483        0.0010780943
  H         0.0002808641        0.0028095259       -0.0010623492
  H         0.0012145731        0.0012437929        0.0015567588
  H         0.0001090846        0.0004522203       -0.0018947106
  C        -0.0002253500        0.0001458878       -0.0003271962
  C         0.0000012083       -0.0001562465       -0.0003868349
  C         0.0002275724        0.0003921079        0.0002686335
  C        -0.0001132162        0.0000385420       -0.0002300497
  C         0.0003593429        0.0001512106        0.0001242067
  H        -0.0015420650       -0.0002751796        0.0014222741
  H        -0.0010223703       -0.0005034417        0.0001372598
  H        -0.0007729601       -0.0018317921       -0.0014135389
  H        -0.0011311545       -0.0006151371        0.0018266121
  C        -0.0001772026        0.0002109292        0.0003699154
  C         0.0000364759       -0.0004417911        0.0001011328
  C         0.0001069100        0.0002264066       -0.0002468739
  C        -0.0000934166        0.0002554259        0.0003385242
  C         0.0000814568       -0.0003237319        0.0000521168
  H        -0.0003935038        0.0006889956       -0.0007256295
  H         0.0006954067        0.0015474505        0.0003367734
  H        -0.0000964620       -0.0009820201       -0.0010341202
  H        -0.0010046380       -0.0008600226        0.0014486649
  C         0.0003550479       -0.0007837138       -0.0004413269
  C         0.0001954781       -0.0001952782        0.0003220774
  C         0.0001783929        0.0001247998       -0.0002705188
  C        -0.0001187245        0.0001102923        0.0003331012
  C        -0.0000543475        0.0001872864       -0.0001166469
  H         0.0010534457       -0.0016074822       -0.0015987580
  H        -0.0009270538       -0.0005917870        0.0004641773
  H         0.0016744187       -0.0017984688        0.0009616050
  H        -0.0001102765       -0.0001061153       -0.0005904211
  C        -0.0003804759        0.0006142267       -0.0001270948
  C         0.0001212697       -0.0001164780       -0.0002442969
  C        -0.0000355052       -0.0005658791        0.0000253898
  C        -0.0000536473        0.0001248667       -0.0002373698
  C        -0.0001350160       -0.0003032757        0.0000783402
  H         0.0007925134       -0.0010252007       -0.0004537914
  H        -0.0002115504        0.0020251726        0.0009137515
  H         0.0007224445        0.0015810415        0.0003899431
  H         0.0018854931        0.0004156016       -0.0026086304
  C         0.0000156150        0.0000457014        0.0001400508
  C        -0.0000866560        0.0002376671        0.0000989987
  C        -0.0001211442        0.0000610468        0.0000311911
  C         0.0001003015       -0.0001869601       -0.0002840477
  C        -0.0000033122       -0.0001940704       -0.0002214582
  H        -0.0016370674       -0.0008062388        0.0026793437
  H        -0.0004153967       -0.0017901315        0.0002533911
  H         0.0003663789        0.0000152108        0.0000145024
  H         0.0000928977       -0.0008241061        0.0007915422
  C        -0.0000138469        0.0002134523        0.0000536596
  C         0.0001593222       -0.0004973833       -0.0000712659
  C        -0.0000825161       -0.0001258159        0.0001005568
  C         0.0000967297       -0.0001803263       -0.0000271728
  C         0.0003351707       -0.0000553581       -0.0002328286
  H        -0.0001846969        0.0011956603       -0.0000627497
  H         0.0002705220        0.0013803572       -0.0006512711
  H         0.0001653492        0.0024317558       -0.0013483623
  H        -0.0002702304       -0.0001306849        0.0015182881
  C         0.0002318698        0.0001316840       -0.0004398694
  C        -0.0000556789        0.0000579008        0.0002278204
  C         0.0000387904        0.0000596498       -0.0002107540
  C        -0.0001125994        0.0000543677        0.0000873803
  C        -0.0003586607        0.0002786256        0.0001105594
  H         0.0010552645       -0.0007280052       -0.0002492085
  H        -0.0007083155       -0.0009959463        0.0011534421
  H         0.0006364642       -0.0019174241        0.0005563608
  H         0.0006145630       -0.0001428918       -0.0013426195
  C         0.0000701773       -0.0000756282        0.0002220370
  C        -0.0003391405       -0.0003433197       -0.0001484591
  C        -0.0001228780       -0.0002983759        0.0001620683
  C        -0.0000393206        0.0002633275       -0.0003104172
  C        -0.0001762943       -0.0002755817        0.0001138725
  H         0.0016147265        0.0000404631       -0.0024038138
  H        -0.0005073349        0.0001360652        0.0012896447
  H         0.0005888109        0.0007563957       -0.0011643398
  H         0.0009588204        0.0010267995       -0.0002916703
  C        -0.0000871951        0.0000213029        0.0002793772
  C         0.0001188627       -0.0003163835       -0.0001502917
  C        -0.0000219091        0.0000664690        0.0001572367
  C         0.0000352679       -0.0001542191       -0.0004834011
  C         0.0001247412        0.0002920938        0.0000488028
  H        -0.0001410929        0.0003084599        0.0016878791
  H         0.0000366491       -0.0020285906       -0.0015926635
  H        -0.0013129349       -0.0009697679        0.0001553354
  H        -0.0003584561       -0.0017369933        0.0007538408
  C         0.0001683022       -0.0003222527       -0.0000758464
  C         0.0001227141       -0.0000148559        0.0001982877
  C        -0.0002044950        0.0001445117        0.0002156345
  C        -0.0000068531        0.0001545323       -0.0001799141
  C        -0.0000846321        0.0000469503       -0.0000042734
  H         0.0007797706       -0.0000275845       -0.0011303570
  H        -0.0007860014        0.0018997435       -0.0001601489
  H         0.0005658557        0.0018874595       -0.0010048257
  H        -0.0013254956       -0.0003763908        0.0005707325
  C         0.0001550191        0.0000278177        0.0002508286