#     Step Nr.          Time[fs]        Kin.[a.u.]          Temp[K]            Pot.[a.u.]        Cons Qty[a.u.]        UsedTime[s]
         0            0.000000         2.412123729       564.840579357         2.446232218         4.858355947         0.000000000
         1            0.100000         2.440711636       571.534933276         2.417622452         4.858334088        61.344858035
         2            0.200000         2.467926334       577.907726488         2.390386990         4.858313324         0.087923250
         3            0.300000         2.493438358       583.881809053         2.364855774         4.858294131         0.087164056
         4            0.400000         2.516943072       589.385845291         2.341333700         4.858276772         0.089637478
         5            0.500000         2.538165197       594.355373585         2.320096254         4.858261451         0.087477262
         6            0.600000         2.556862418       598.733652118         2.301385962         4.858248381         0.086267912
         7            0.700000         2.572828464       602.472378345         2.285409261         4.858237724         0.087578814
         8            0.800000         2.585895711       605.532300908         2.272333893         4.858229604         0.088618013
         9            0.900000         2.595937289       607.883710433         2.262286856         4.858224145         0.087302017
        10            1.000000         2.602868606       609.506798345         2.255352767         4.858221373         0.088180420
        11            1.100000         2.606648355       610.391892043         2.251572980         4.858221335         0.086540977
        12            1.200000         2.607278928       610.539551787         2.250945077         4.858224006         0.087338693
        13            1.300000         2.604806191       609.960517554         2.253423167         4.858229359         0.086555713
        14            1.400000         2.599318759       608.675540126         2.258918535         4.858237293         0.088397916
        15            1.500000         2.590946738       606.715086333         2.267300976         4.858247714         0.084833694
        16            1.600000         2.579859894       604.118909654         2.278400547         4.858260441         0.086053634
        17            1.700000         2.566265225       600.935482291         2.292010105         4.858275330         0.087640907
        18            1.800000         2.550404082       597.221320823         2.307888090         4.858292173         0.089026015
        19            1.900000         2.532548874       593.040214253         2.325761822         4.858310696         0.085647300
        20            2.000000         2.512999411       588.462368610         2.345331280         4.858330691         0.086269393
        21            2.100000         2.492078777       583.563439556         2.366273090         4.858351867         0.084369672
        22            2.200000         2.470128864       578.423487151         2.388245066         4.858373930         0.086507358
        23            2.300000         2.447505801       573.125904691         2.410890789         4.858396590         0.085329003
        24            2.400000         2.424575157       567.756297037         2.433844363         4.858419520         0.084254530
        25            2.500000         2.401706960       562.401312413         2.456735448         4.858442408         0.083828501
        26            2.600000         2.379270603       557.147450479         2.479194345         4.858464948         0.083748996
        27            2.700000         2.357629893       552.079903092         2.500856928         4.858486821         0.084663983
        28            2.800000         2.337138179       547.281413183         2.521369589         4.858507768         0.084104719
        29            2.900000         2.318133520       542.831142760         2.540393941         4.858527461         0.082556390
        30            3.000000         2.300934123       538.803605790         2.557611547         4.858545670         0.082079095
        31            3.100000         2.285834010       535.267652792         2.572728068         4.858562079         0.080561071
        32            3.200000         2.273098930       532.285512912         2.585477573         4.858576503         0.080417335
        33            3.300000         2.262962709       529.911941162         2.595626009         4.858588718         0.079361337
        34            3.400000         2.255624093       528.193477024         2.602974480         4.858598573         0.080790920
        35            3.500000         2.251243947       527.167789822         2.607361969         4.858605916         0.078569995
        36            3.600000         2.249942968       526.863143174         2.608667687         4.858610656         0.079544253
        37            3.700000         2.251799976       527.297993643         2.606812711         4.858612687         0.080692689
        38            3.800000         2.256850712       528.480711151         2.601761303         4.858612015         0.076913267
        39            3.900000         2.265087214       530.409430725         2.593521387         4.858608601         0.078721648
        40            4.000000         2.276457760       533.072041247         2.582144731         4.858602491         0.077044146
        41            4.100000         2.290867379       536.446303225         2.567726367         4.858593746         0.078807635
        42            4.200000         2.308178904       540.500096949         2.550403566         4.858582470         0.079043626
        43            4.300000         2.328214589       545.191799786         2.530354225         4.858568813         0.075680128
        44            4.400000         2.350758295       550.470799420         2.507794618         4.858552913         0.075870441
        45            4.500000         2.375558115       556.278107079         2.482976855         4.858534970         0.075209032
        46            4.600000         2.402329322       562.547049177         2.456185867         4.858515189         0.077285545
        47            4.700000         2.430757719       569.204051141         2.427736057         4.858493777         0.077598490
        48            4.800000         2.460503002       576.169424560         2.397967895         4.858470897         0.075937916
        49            4.900000         2.491201550       583.358021827         2.367245034         4.858446584         0.075629456
        50            5.000000         2.522467615       590.679512752         2.335952983         4.858420598         0.075079788
        51            5.100000         2.554924902       598.279949109         2.303468388         4.858393290         0.094717564
        52            5.200000         2.586005615       605.558036824         2.272366045         4.858371660         0.074941089
        53            5.300000         2.616603357       612.723028339         2.241741015         4.858344372         0.074996596
        54            5.400000         2.646308522       619.679007536         2.212008638         4.858317159         0.075026313
        55            5.500000         2.674704764       626.328479899         2.183587804         4.858292569         0.075213189
        56            5.600000         2.701403355       632.580417672         2.156866713         4.858270067         0.075660393
        57            5.700000         2.726045567       638.350818786         2.132203835         4.858249402         0.075175492
        58            5.800000         2.748300837       643.562275963         2.109929790         4.858230627         0.076773679
        59            5.900000         2.767867966       648.144258290         2.090345922         4.858213888         0.078285285
        60            6.000000         2.784477769       652.033731712         2.073721589         4.858199358         0.078320864
        61            6.100000         2.797896007       655.175844568         2.060291207         4.858187214         0.078244565
        62            6.200000         2.807926244       657.524598524         2.050251366         4.858177610         0.078051452
        63            6.300000         2.814412354       659.043433623         2.043758307         4.858170662         0.078025609
        64            6.400000         2.817240515       659.705696359         2.040925963         4.858166478         0.077634257
        65            6.500000         2.816340738       659.494998134         2.041824360         4.858165098         0.077986205
        66            6.600000         2.811687834       658.405439979         2.046478740         4.858166574         0.077633371
        67            6.700000         2.803301842       656.441714522         2.054869039         4.858170881         0.164360386
        68            6.800000         2.791247886       653.619071873         2.066930096         4.858177982         0.076926151
        69            6.900000         2.775635469       649.963153845         2.082552322         4.858187791         0.076811858
        70            7.000000         2.756617233       645.509704183         2.101582955         4.858200187         0.077120678
        71            7.100000         2.734387172       640.304150247         2.123827863         4.858215035         0.076822726
        72            7.200000         2.709178311       634.401058346         2.149053855         4.858232165         0.076613843
        73            7.300000         2.681259864       627.863470229         2.176991489         4.858251354         0.076575032
        74            7.400000         2.650934007       620.762145099         2.207338364         4.858272371         0.077284118
        75            7.500000         2.618532203       613.174701021         2.239762767         4.858294969         0.076707306
        76            7.600000         2.584411139       605.184662664         2.273907744         4.858318884         0.077397780
        77            7.700000         2.548948404       596.880448564         2.309395409         4.858343813         0.077018145
        78            7.800000         2.512537888       588.354295141         2.345831566         4.858369454         0.077377409
        79            7.900000         2.475584973       579.701129670         2.382810524         4.858395498         0.076977259
        80            8.000000         2.438501561       571.017405970         2.419920063         4.858421625         0.076842067
        81            8.100000         2.401701059       562.399930472         2.456746479         4.858447538         0.076868867
        82            8.200000         2.365593334       553.944680852         2.492879581         4.858472915         0.077041405
        83            8.300000         2.330579717       545.745635472         2.527917715         4.858497431         0.076747485
        84            8.400000         2.297048105       537.893627462         2.561472699         4.858520805         0.076941319
        85            8.500000         2.265368211       530.475231064         2.593174547         4.858542758         0.077168477
        86            8.600000         2.235887119       523.571722380         2.622675888         4.858563007         0.077358108
        87            8.700000         2.208925064       517.258089865         2.649656261         4.858581324         0.077343361
        88            8.800000         2.184771560       511.602128277         2.673825929         4.858597489         0.077106492
        89            8.900000         2.163681929       506.663625620         2.694929383         4.858611312         0.065133288
        90            9.000000         2.145874225       502.493643075         2.712748410         4.858622635         0.041795783
        91            9.100000         2.131526681       499.133917016         2.727104637         4.858631317         0.041573206
        92            9.200000         2.120775587       496.616362123         2.737861678         4.858637265         0.074247626
        93            9.300000         2.113713719       494.962703377         2.744926687         4.858640406         0.077176267
        94            9.400000         2.110389357       494.184246251         2.748251363         4.858640720         0.077296901
        95            9.500000         2.110805768       494.281756204         2.747832441         4.858638209         0.077095537
        96            9.600000         2.114921305       495.245480401         2.743711604         4.858632908         0.076741736
        97            9.700000         2.122650042       497.055298239         2.735974861         4.858624903         0.077702972
        98            9.800000         2.133862986       499.681003381         2.724751310         4.858614296         0.077112505
        99            9.900000         2.148389834       503.082716621         2.710211394         4.858601228         0.077151286
       100           10.000000         2.166021216       507.211410333         2.692564648         4.858585864         0.076880600
       101           10.100000         2.186511430       512.009549011         2.672056986         4.858568415         0.076856754
       102           10.200000         2.209581609       517.411831431         2.648967490         4.858549100         0.077188239
       103           10.300000         2.234923306       523.346028981         2.623604843         4.858528149         0.076828642
       104           10.400000         2.262202465       529.733916965         2.596303401         4.858505866         0.076951863
       105           10.500000         2.291063675       536.492269380         2.567418826         4.858482501         0.077091534
       106           10.600000         2.321134677       543.533915765         2.537323696         4.858458374         0.076626386
       107           10.700000         2.352031094       550.768847354         2.506402672         4.858433766         0.076372617
       108           10.800000         2.383361293       558.105356365         2.475047707         4.858408999         0.076766469
       109           10.900000         2.414731327       565.451193536         2.443653059         4.858384385         0.077125399
       110           11.000000         2.445749924       572.714735761         2.412610318         4.858360242         0.077110674
       111           11.100000         2.476033361       579.806127274         2.382303498         4.858336858         0.077318241
       112           11.200000         2.505210242       586.638399825         2.353104267         4.858314509         0.049608334
       113           11.300000         2.532926211       593.128574359         2.325367269         4.858293480         0.041553946
       114           11.400000         2.558848296       599.198679785         2.299425747         4.858274043         0.041670859
       115           11.500000         2.582669023       604.776715910         2.275587412         4.858256435         0.041602994
       116           11.600000         2.604110222       609.797544199         2.254130655         4.858240877         0.041481568
       117           11.700000         2.622926418       614.203682642         2.235301107         4.858227524         0.041613369
       118           11.800000         2.638907795       617.945999237         2.219308750         4.858216546         0.041729259
       119           11.900000         2.651882678       620.984292780         2.206325392         4.858208070         0.041660381
       120           12.000000         2.661719545       623.287765774         2.196482647         4.858202192         0.041856191
       121           12.100000         2.668328515       624.835370625         2.189870455         4.858198970         0.041762089
       122           12.200000         2.671662284       625.616030444         2.186536135         4.858198419         0.041668722
       123           12.300000         2.671716524       625.628731614         2.186484025         4.858200549         0.041403114
       124           12.400000         2.668529757       624.882494863         2.189675549         4.858205305         0.041539090
       125           12.500000         2.662182648       623.396209292         2.196029983         4.858212630         0.041781011
       126           12.600000         2.652796701       621.198327219         2.205425677         4.858222378         0.041690232
       127           12.700000         2.640532577       618.326470060         2.217701858         4.858234435         0.041853108
       128           12.800000         2.625587810       614.826893815         2.232660820         4.858248630         0.041641857
       129           12.900000         2.608194013       610.753834637         2.250070739         4.858264751         0.041560713
       130           13.000000         2.588613730       606.168772158         2.269668853         4.858282583         0.041642796
       131           13.100000         2.567136892       601.139598111         2.291164993         4.858301884         0.041486381
       132           13.200000         2.544076855       595.739690896         2.314245538         4.858322393         0.041605637
       133           13.300000         2.519766236       590.046937989         2.338577580         4.858343816         0.041701345
       134           13.400000         2.494552515       584.142708280         2.363813381         4.858365896         0.041696896
       135           13.500000         2.468793375       578.110759246         2.389594931         4.858388306         0.041731257
       136           13.600000         2.442851938       572.036122090         2.415558825         4.858410763         0.041791344
       137           13.700000         2.417091983       566.003982201         2.441340978         4.858432962         0.041834874
       138           13.800000         2.391873122       560.098548818         2.466581493         4.858454616         0.041598911
       139           13.900000         2.367546000       554.401931420         2.490929409         4.858475409         0.041445548
       140           14.000000         2.344447713       548.993067272         2.514047370         4.858495083         0.041622140
       141           14.100000         2.322897383       543.946683856         2.535616000         4.858513383         0.041872171
       142           14.200000         2.303191971       539.332320202         2.555338083         4.858530054         0.041604954
       143           14.300000         2.285602375       535.213411312         2.572942512         4.858544887         0.041914377
       144           14.400000         2.270369833       531.646447590         2.588187842         4.858557675         0.041593977
       145           14.500000         2.257702784       528.680238667         2.600865467         4.858568252         0.041592347
       146           14.600000         2.247774117       526.355269063         2.610802354         4.858576471         0.041635090
       147           14.700000         2.240718922       524.703172900         2.617863306         4.858582228         0.041516362
       148           14.800000         2.236632771       523.746329901         2.621952668         4.858585440         0.094734423
       149           14.900000         2.235570438       523.497566044         2.623015631         4.858586069         0.046129230
       150           15.000000         2.237545194       523.959989442         2.621038908         4.858584102         0.076903287
       151           15.100000         2.242528689       525.126961194         2.616050882         4.858579571         0.077111064
       152           15.200000         2.250451324       526.982183532         2.608121207         4.858572531         0.077134489
       153           15.300000         2.261203202       529.499922077         2.597359885         4.858563086         0.076550441
       154           15.400000         2.274635605       532.645352041         2.583915755         4.858551360         0.077333991
       155           15.500000         2.290562967       536.375019853         2.567974529         4.858537496         0.077257832
       156           15.600000         2.308765378       540.637429901         2.549756310         4.858521688         0.076666128
       157           15.700000         2.328991477       545.373721641         2.529512649         4.858504126         0.077067257
       158           15.800000         2.350961762       550.518444626         2.507523300         4.858485062         0.076839431
       159           15.900000         2.374372288       556.000425086         2.484092455         4.858464743         0.077452888
       160           16.000000         2.398898716       561.743713218         2.459544720         4.858443436         0.076908669
       161           16.100000         2.424200609       567.668590207         2.434220800         4.858421410         0.077056506
       162           16.200000         2.449925950       573.692624691         2.408473026         4.858398977         0.076754495
       163           16.300000         2.475715796       579.731763949         2.382660639         4.858376434         0.076725386
       164           16.400000         2.501208937       585.701424797         2.357145132         4.858354068         0.076812804
       165           16.500000         2.526046752       591.517629698         2.332285403         4.858332155         0.077013536
       166           16.600000         2.549877987       597.098126443         2.308433014         4.858311001         0.077256053
       167           16.700000         2.572363304       602.363453085         2.285927636         4.858290940         0.077239002
       168           16.800000         2.593179766       607.237988531         2.265092372         4.858272138         0.076782049
       169           16.900000         2.612025149       611.650961559         2.246229768         4.858254917         0.076440189
       170           17.000000         2.628621902       615.537378889         2.229617620         4.858239521         0.076566793
       171           17.100000         2.642720866       618.838895753         2.215505239         4.858226105         0.076798207
       172           17.200000         2.654104588       621.504591546         2.204110291         4.858214879         0.076943472
       173           17.300000         2.662590176       623.491639082         2.195615823         4.858205999         0.077000868
       174           17.400000         2.668031820       624.765894363         2.190167731         4.858199551         0.076606985
       175           17.500000         2.670322770       625.302360108         2.187872895         4.858195665         0.077050848
       176           17.600000         2.669396852       625.085540368         2.188797517         4.858194369         0.077049688
       177           17.700000         2.665229477       624.109677191         2.192966240         4.858195717         0.077078561
       178           17.800000         2.657838031       622.378842094         2.200361612         4.858199644         0.076848844
       179           17.900000         2.647281845       619.906928086         2.210924371         4.858206216         0.076857097
       180           18.000000         2.633661620       616.717516303         2.224553681         4.858215301         0.070905666
       181           18.100000         2.617118260       612.843601767         2.241108523         4.858226783         0.041277219
       182           18.200000         2.597831226       608.327208563         2.260409312         4.858240538         0.041432305
       183           18.300000         2.576016410       603.218891338         2.282240045         4.858256455         0.041483766
       184           18.400000         2.551923458       597.577108944         2.306350855         4.858274312         0.041398247
       185           18.500000         2.525832790       591.467526790         2.332461079         4.858293869         0.041919450
       186           18.600000         2.498052208       584.962222020         2.360262718         4.858314926         0.041453700
       187           18.700000         2.468913121       578.138799862         2.389424101         4.858337222         0.041712392
       188           18.800000         2.438766591       571.079467296         2.419593883         4.858360474         0.041346098
       189           18.900000         2.407979041       563.870028692         2.450405394         4.858384434         0.041674215
       190           19.000000         2.376927822       556.598847578         2.481481001         4.858408822         0.041529788
       191           19.100000         2.345996428       549.355725617         2.512436818         4.858433246         0.041622805
       192           19.200000         2.315569031       542.230623178         2.542888275         4.858457306         0.041420169
       193           19.300000         2.286024576       535.312277103         2.572456035         4.858480612         0.041454881
       194           19.400000         2.257731265       528.686907965         2.600771633         4.858502898         0.041459274
       195           19.500000         2.231042235       522.437208849         2.627481778         4.858524013         0.041844276
       196           19.600000         2.206292263       516.641573986         2.652251513         4.858543776         0.041848535
       197           19.700000         2.183794530       511.373339782         2.674767434         4.858561964         0.041622930
       198           19.800000         2.163837014       506.699941471         2.694741331         4.858578345         0.041384664
       199           19.900000         2.146678747       502.682036025         2.711913954         4.858592701         0.041673577
       200           20.000000         2.132546388       499.372699078         2.726058449         4.858604837         0.041470956
