 # Version information for this restart file 
 # current date 2021-04-29 14:24:10.924
 # current working dir /scratch/sgiannini/REG_TEST_MERGING/37-071a0540f1_code_extension_V3_ADJ/run-fssh-3NAP-3ANT-mixed-inp-C-int-NFF-FE-CT
 # Program compiled at                              Thu 29 Apr 10:11:08 BST 2021
 # Program compiled on                                   bulstake.phys.ucl.ac.uk
 # Program compiled for                                             local_hetero
 # Source code revision number                                       git:1080fc1
 &GLOBAL
   BLACS_GRID  SQUARE
   PREFERRED_FFT_LIBRARY  FFTW3
   PRINT_LEVEL  LOW
   PROGRAM_NAME  CP2K
   PROJECT_NAME run
   RUN_TYPE  MD
 &END GLOBAL
 &MOTION
   &MD
     ENSEMBLE  NVE
     STEPS  200
     TIMESTEP     9.9999999999999992E-02
     STEP_START_VAL  200
     TIME_START_VAL     2.0000000000000071E+01
     ECONS_START_VAL     4.8800232510076891E-01
     TEMPERATURE     3.0000000000000000E+02
     &THERMOSTAT
       REGION  GLOBAL
       &NOSE
         LENGTH  3
         YOSHIDA  3
         TIMECON     9.9999999999999989E+02
         MTS  2
       &END NOSE
     &END THERMOSTAT
     &AVERAGES  T
       &RESTART_AVERAGES
         ITIMES_START  1
         AVECPU     1.4122528173029430E-02
         AVEHUGONIOT     0.0000000000000000E+00
         AVETEMP_BARO     0.0000000000000000E+00
         AVEPOT     2.9512318080453442E-01
         AVEKIN     1.9276833910332294E-01
         AVETEMP     1.6429515359564672E+02
         AVEKIN_QM     0.0000000000000000E+00
         AVETEMP_QM     0.0000000000000000E+00
         AVEVOL     1.4576402699474397E+06
         AVECELL_A     1.1338356797313864E+02
         AVECELL_B     1.1338356797313864E+02
         AVECELL_C     1.1338356797313864E+02
         AVEALPHA     9.0000000000000043E+01
         AVEBETA     9.0000000000000043E+01
         AVEGAMMA     9.0000000000000043E+01
         AVE_ECONS    -1.4108260494332217E-01
         AVE_PRESS     0.0000000000000000E+00
         AVE_PXX     0.0000000000000000E+00
       &END RESTART_AVERAGES
     &END AVERAGES
     &PRINT
       &PROGRAM_RUN_INFO  LOW
       &END PROGRAM_RUN_INFO
     &END PRINT
   &END MD
   &PRINT
     &TRAJECTORY  LOW
       FORMAT  XMOL
       &EACH
         MD  200
       &END EACH
     &END TRAJECTORY
     &MIXED_ENERGIES  OFF
     &END MIXED_ENERGIES
     &RESTART  ON
       &EACH
         MD  200
       &END EACH
     &END RESTART
     &RESTART_HISTORY  OFF
     &END RESTART_HISTORY
   &END PRINT
 &END MOTION
 &MULTIPLE_FORCE_EVALS
   FORCE_EVAL_ORDER  1..13
   MULTIPLE_SUBSYS  T
 &END MULTIPLE_FORCE_EVALS
 &FORCE_EVAL
   METHOD  MIXED
   &MIXED
     MIXING_TYPE  ADIABATIC
     &ADIABATIC
       METHOD_PROPAGATION FSSH
       PRINT_MORE  T
       INITIALIZATION ADIABATIC
       REPRESENTATION DIABATIC_BASIS
       ELECTRONIC_PARTIAL_STEP  5
       FIRST_DIABAT  1
       FIRST_ADIABAT  1
       SEED  5000
       NUMBER_DIABATIC_STATES  12
       NUMBER_ORBITALS  1
       NUCLEAR_TIMESTEP     9.9999999999999992E-02
       CENTER_OF_MASS  T
       INDEX_ACTIVE_MOLS  3..8
       METHOD_COUPLING FROZEN_COUPLINGS
       &OPTIMIZATION
         DO_SPEEDUP_LJ  F
         DO_SPEEDUP_INTRA  F
         SURF_HOP_CHOICE TRIVIAL_HOP_CORRECT
         RK_PROPAGATION DIABATIC_RK_FAST
         REORDERING_STATES_USING_OVERLAP  T
       &END OPTIMIZATION
       &DECOHERENCE
         DECOHERENCE_CORRECTIONS NO_DECO_CORR
         DECO_TIME EDC
         SPURIOUS_TRANSFER_CORR  T
         EDC_C     1.0000000000000000E+00
         EDC_E0     0.0000000000000000E+00
         THRESHOLD_TAU_FORCES     9.9999999999999995E-21
         TEMPERATURE_FG_WIDTH     3.0000000000000000E+02
         DECOHERENCE_CRITERION     9.9999999999999995E-07
       &END DECOHERENCE
       &ENERGY_CONSERVATION
         METHOD_RESCALING NACV
         METHOD_ADIABATIC_NACV FAST
         METHOD_REVERSAL ALWAYS
       &END ENERGY_CONSERVATION
       &METHOD_SITE_ENERGIES
         MULTI_STATES  T
         &CT_BLOCK
C 6  1      -0.58339550E-01
C 6  1      -0.99845988E-01
C 6  1       0.12140408E+00
C 6  1      -0.10046501E+00
C 6  1      -0.59335682E-01
H 1  1       0.17155799E+00
H 1  1       0.17628283E+00
H 1  1       0.17678236E+00
H 1  1       0.17190822E+00
C 6  1       0.12140644E+00
C 6  1      -0.59358378E-01
C 6  1      -0.10029122E+00
C 6  1      -0.10012781E+00
C 6  1      -0.58011713E-01
H 1  1       0.17189684E+00
H 1  1       0.17672572E+00
H 1  1       0.17633935E+00
H 1  1       0.17147152E+00
C  6   1    -0.20949694E+00
C  6   1    -0.31212345E+00
C  6   1     0.25978083E+00
C  6   1    -0.61212683E+00
C  6   1     0.25537360E+00
C  6   1    -0.30923112E+00
C  6   1    -0.21247959E+00
H  1   1     0.11121255E+00
H  1   1     0.12280490E+00
H  1   1     0.17085595E+00
H  1   1     0.12225175E+00
H  1   1     0.11179799E+00
C  6   1     0.25909058E+00
C  6   1    -0.60734358E+00
C  6   1     0.25364958E+00
C  6   1    -0.31146740E+00
H  1   1     0.16986379E+00
C  6   1    -0.30795782E+00
C  6   1    -0.20951246E+00
H  1   1     0.12283089E+00
C  6   1    -0.21340590E+00
H  1   1     0.12221881E+00
H  1   1     0.11133373E+00
H  1   1     0.11208013E+00
           ADD_COULOMB_POTENTIAL  T
           DIELECTRIC_SCREENING     3.0000000000000000E+00
           N_DONOR_ATOMS  18
           N_ACCEPTOR_ATOMS  24
           INDEX_DONOR_MOLS  3..5
           INDEX_ACCEPTOR_MOLS  6..8
         &END CT_BLOCK
       &END METHOD_SITE_ENERGIES
       &FROZEN_COUPLINGS
1   1   0.0
1   2   0.001469972
1   4   0.002
2   2   0.0
2   3   0.001469972
2   5   0.002
3   3   0.0
3   6   0.002
4   4   0.0
4   5   0.001469972
4   7   0.002
5   5   0.0
5   6   0.001469972
5   8   0.002
6   6   0.0
6   9   0.002
7   7   0.0
7   8   0.001469972
8   8   0.0
8   9   0.001469972
9   9   0.0
10   10   0.0
10   11   0.00055124
11   11   0.0
11   12   0.00055124
12   12   0.0
         CONNECTIVITY_FRZ_C  T
         INTERACTION_NUMBER  26
       &END FROZEN_COUPLINGS
       &PRINT
         &COEFFICIENTS  LOW
           &EACH
             MD  1
           &END EACH
         &END COEFFICIENTS
         &POPULATIONS  LOW
           &EACH
             MD  1
           &END EACH
         &END POPULATIONS
         &ADIAB_POPULATIONS  LOW
           &EACH
             MD  1
           &END EACH
         &END ADIAB_POPULATIONS
         &ADIABAT_ENERGIES  SILENT
           &EACH
             MD  1
           &END EACH
         &END ADIABAT_ENERGIES
         &SITE_ENERGIES  SILENT
           &EACH
             MD  1
           &END EACH
         &END SITE_ENERGIES
         &OFF_DIAGONALS  SILENT
           &EACH
             MD  1
           &END EACH
         &END OFF_DIAGONALS
         &HAMILTONIAN  SILENT
           UNIT hartree
           &EACH
             MD  1
           &END EACH
         &END HAMILTONIAN
         &PSEUDO_HAMILTONIAN  SILENT
           UNIT hartree
           &EACH
             MD  1
           &END EACH
         &END PSEUDO_HAMILTONIAN
         &SH_INFO  SILENT
           &EACH
             MD  1
           &END EACH
         &END SH_INFO
       &END PRINT
     &END ADIABATIC
     &PRINT
       &PROGRAM_RUN_INFO  OFF
         &EACH
           MD  200
         &END EACH
       &END PROGRAM_RUN_INFO
     &END PRINT
   &END MIXED
   &SUBSYS
     &CELL
       A     6.0000000000000007E+01    0.0000000000000000E+00    0.0000000000000000E+00
       B     0.0000000000000000E+00    6.0000000000000007E+01    0.0000000000000000E+00
       C     0.0000000000000000E+00    0.0000000000000000E+00    6.0000000000000007E+01
       PERIODIC  XYZ
       MULTIPLE_UNIT_CELL  1 1 1
     &END CELL
     &COORD
Ne   -1.2000000000000000E+01   -1.2000000000000000E+01   -1.2000000000000000E+01
Ne   -1.2000000000000000E+01   -1.2000000000000000E+01    0.0000000000000000E+00
CK    1.9325613261890169E-03   -7.2920342907285152E-01    2.4487075367470306E+00
CM    7.6476810405941189E-04   -1.4289301311384763E+00    1.2403903346309495E+00
CT    8.1685951856412965E-04   -7.2089042398446312E-01   -1.8019795872341844E-04
CM    1.2137348417864218E-03   -1.4279866093338101E+00   -1.2434379651205656E+00
CK    1.0352859792725094E-03    7.1174334998492950E-01    2.4530950115599945E+00
HA   -7.4044163448602207E-03   -1.2566572656984596E+00    3.3719891188019355E+00
HA    7.0887917084258810E-03   -2.4843181523492497E+00    1.1931283930170573E+00
HA    7.5300432752732046E-03   -2.4821767007500837E+00   -1.2009071445238795E+00
HA    8.2316216083173042E-03    1.2474240897324331E+00    3.3745595715933012E+00
CT    1.9590641851581743E-03    7.2088987905317270E-01    1.8075915134936727E-04
CK    1.2933294034443469E-03   -7.1174287790172985E-01   -2.4530954658638029E+00
CM    1.4078984666973107E-03    1.4279870364277787E+00    1.2434383209984503E+00
CM    1.8567423277616973E-03    1.4289289021572806E+00   -1.2403909248664418E+00
CK    3.9553168905879420E-04    7.2920378098408289E-01   -2.4487082078882949E+00
HA   -5.1456441054982659E-03   -1.2474273441397983E+00   -3.3745653608860726E+00
HA   -4.1878291421842372E-03    2.4821819527773092E+00    1.2009072670353622E+00
HA   -3.7469070720736576E-03    2.4843216971871529E+00   -1.1931289946124239E+00
HA    1.0485679778090758E-02    1.2566527143012782E+00   -3.3719827297777130E+00
CT    5.0007745884649477E+00   -7.2917814310728402E-01    2.4488239559478795E+00
CT    4.9994538360613499E+00   -1.4287768725888876E+00    1.2404499800657853E+00
CT    4.9994224171285548E+00   -7.2077895166102302E-01   -1.7924041767442442E-04
CT    4.9999099147270822E+00   -1.4278346149274836E+00   -1.2434943107901426E+00
CT    4.9998745439448733E+00    7.1171858268973220E-01    2.4532095165240846E+00
HA    4.9911474169446706E+00   -1.2568738082727349E+00    3.3719380778270351E+00
HA    5.0054877836539236E+00   -2.4841195744796623E+00    1.1932492559779442E+00
HA    5.0059387319337363E+00   -2.4819786857625510E+00   -1.2010238119609855E+00
HA    5.0067911497038518E+00    1.2476457214252092E+00    3.3745233736577420E+00
CT    5.0005644384701515E+00    7.2077887961178433E-01    1.7924092422863920E-04
CT    5.0001316084296610E+00   -7.1171849191387859E-01   -2.4532094478347335E+00
CT    5.0000984593031434E+00    1.4278346064494121E+00    1.2434943708938815E+00
CT    5.0005544169476650E+00    1.4287767527716382E+00   -1.2404500891718080E+00
CT    4.9992313498810832E+00    7.2917820127258781E-01   -2.4488241686229042E+00
HA    4.9933932603090776E+00   -1.2476460519025272E+00   -3.3745240187801491E+00
HA    4.9942057063119201E+00    2.4819793590127937E+00    1.2010239919862682E+00
HA    4.9946554477457807E+00    2.4841201037388623E+00   -1.1932492717131606E+00
HA    5.0090362383277824E+00    1.2568731226419243E+00   -3.3719370817209007E+00
CT    1.0001642049793993E+01   -7.2618064441277197E-01    2.4735067478077783E+00
CT    1.0000200147805105E+01   -1.4274148182270574E+00    1.2473112365640870E+00
CT    9.9993841784501978E+00   -7.1895504243769903E-01   -1.2444236463296941E-04
CT    1.0000872264424109E+01   -1.4264419965475192E+00   -1.2502545405725736E+00
CT    1.0000709854984429E+01    7.0874527346169891E-01    2.4779174573101876E+00
HA    1.0012725823776137E+01   -1.2406374914045442E+00    3.4038052137389805E+00
HA    1.0022403777123515E+01   -2.4802151993228589E+00    1.1889324293631427E+00
HA    1.0023158326407215E+01   -2.4780623139708315E+00   -1.1965146483893285E+00
HA    1.0028602414778208E+01    1.2310445884872301E+00    3.4063542720861113E+00
CT    1.0000462712840237E+01    7.1894455228700638E-01    1.2490221194429258E-04
CT    1.0000894980437588E+01   -7.0873170402638275E-01   -2.4779081442181878E+00
CT    1.0000803608103503E+01    1.4264310179540851E+00    1.2502632789860406E+00
CT    1.0001446320343966E+01    1.4273845083685395E+00   -1.2473346240911911E+00
CT    9.9999342142580705E+00    7.2619094372747184E-01   -2.4735520860377540E+00
HA    1.0014834137614598E+01   -1.2311470014581405E+00   -3.4066520715094888E+00
HA    1.0011205880290289E+01    2.4782658029468805E+00    1.1965752326668855E+00
HA    1.0011812756137983E+01    2.4804011653226525E+00   -1.1889077767708636E+00
HA    1.0030366062608765E+01    1.2404529551660839E+00   -3.4034534761033832E+00
CC    1.4995810404494366E+01   -7.0044167729979323E-01    3.6840421089181619E+00
CB    1.5000056737473985E+01   -1.4004316130349699E+00    2.4795367539755193E+00
CP    1.5004533634529547E+01   -7.1040420558496731E-01    1.2106629771792483E+00
CA    1.4997459295280574E+01   -1.4210224054190732E+00    1.5875705857228966E-03
CP    1.5004788093729241E+01    7.0889429597023712E-01    1.2048132988642390E+00
CB    1.4990088849193407E+01    1.4067721096340613E+00    2.4779569165615460E+00
CC    1.4989881220618642E+01    6.7575678930642702E-01    3.6914778267927830E+00
H    1.4979325284923352E+01   -1.2793956802398003E+00    4.6171665064447636E+00
H    1.5018719225746713E+01   -2.4970574718907534E+00    2.3874844134257622E+00
H    1.4987114662905311E+01   -2.5140728557817402E+00    7.4736459624909178E-03
H    1.5082344314299680E+01    2.4978790740134924E+00    2.3743698891165419E+00
H    1.5098164599862040E+01    1.3189501585217347E+00    4.6139192475923636E+00
CP    1.4997509918037617E+01   -7.0887935926707568E-01   -1.2048004523228966E+00
CA    1.4994234314179939E+01    1.4210220626737162E+00   -1.5490920756223452E-03
CP    1.4997743026149829E+01    7.1040633337447112E-01   -1.2106152884889483E+00
CB    1.5006455536160324E+01   -1.4067001752323858E+00   -2.4779433892879918E+00
H    1.5020781951235000E+01    2.5138603435351778E+00   -7.4605506004114851E-03
CB    1.4996425487851631E+01    1.4004312207217549E+00   -2.4795699132840459E+00
CC    1.5006230763461827E+01   -6.7565061157403505E-01   -3.6913991199343705E+00
H    1.4930863215871831E+01   -2.4990494899747264E+00   -2.3745697487827200E+00
CC    1.5000273476264738E+01    7.0047542834505183E-01   -3.6840548472960091E+00
H    1.4994359772958921E+01    2.4971502853843823E+00   -2.3874627816166019E+00
H    1.4920418909289589E+01   -1.3198026080527911E+00   -4.6153830302125796E+00
H    1.5038691969080892E+01    1.2791031998515523E+00   -4.6166741093223367E+00
CA    1.9997650855922497E+01   -7.0364726676209843E-01    3.6641845787332690E+00
CA    2.0001729657412238E+01   -1.4050077375796475E+00    2.4750714247799905E+00
CA    2.0003315665407261E+01   -7.1037964928831754E-01    1.2094698154616264E+00
CA    2.0001463466801290E+01   -1.4118471526903569E+00    1.4703380045836820E-03
CA    2.0003645270839261E+01    7.0918860700066000E-01    1.2038705416799398E+00
CA    1.9991826681641356E+01    1.4115070089355366E+00    2.4736535059075861E+00
CA    1.9991967779086337E+01    6.7844008618403417E-01    3.6716371195101551E+00
H    1.9969856849221078E+01   -1.2943087346517219E+00    4.5895881840804940E+00
H    2.0012268663541093E+01   -2.5054781755045155E+00    2.4011009379647441E+00
H    1.9983002418176500E+01   -2.5049635003922517E+00    7.2220471136136884E-03
H    2.0075423596229101E+01    2.5074006824393429E+00    2.3879479599267150E+00
H    2.0089258143082834E+01    1.3350724427095444E+00    4.5855827999738379E+00
CA    1.9996359056258843E+01   -7.0918857371929311E-01   -1.2038705488547647E+00
CA    1.9998521658013310E+01    1.4118470999484900E+00   -1.4702773155091462E-03
CA    1.9996688596329008E+01    7.1037971662439869E-01   -1.2094698037214544E+00
CA    2.0008165833532093E+01   -1.4115070137274133E+00   -2.4736535972585818E+00
H    2.0016995395354638E+01    2.5049637855643918E+00   -7.2219297363071760E-03
CA    1.9998262663379460E+01    1.4050077990283882E+00   -2.4750716814444633E+00
CA    2.0008020123179943E+01   -6.7843981939051412E-01   -3.6716370809101293E+00
H    1.9924603658064036E+01   -2.5074028147981133E+00   -2.3879483227228584E+00
CA    2.0002336629925598E+01    7.0364734556186304E-01   -3.6641845274371532E+00
H    1.9987756972117822E+01    2.5054781052435060E+00   -2.4011006328212567E+00
H    1.9910782882462446E+01   -1.3350742031750584E+00   -4.5855855526830753E+00
H    2.0030183433535232E+01    1.2943082130509933E+00   -4.5895876765039345E+00
CA    2.4996487995482958E+01   -7.0369288812022934E-01    3.6642478272876966E+00
CA    2.5000401218485422E+01   -1.4051477572840958E+00    2.4751850387129228E+00
CA    2.5001804767631274E+01   -7.1045303953625405E-01    1.2095557246396131E+00
CA    2.4999881672666007E+01   -1.4119388539612749E+00    1.4685109318234094E-03
CA    2.5002130664935770E+01    7.0926157435852055E-01    1.2039577761531510E+00
CA    2.4990489841150765E+01    1.4116459681271138E+00    2.4737680038713910E+00
CA    2.4990817311502017E+01    6.7847924162425044E-01    3.6717049299494415E+00
H    2.4968348105246555E+01   -1.2941880617205033E+00    4.5897400802957131E+00
H    2.5010545667908559E+01   -2.5056647863722250E+00    2.4011239434592473E+00
H    2.4981132533323514E+01   -2.5050718350691068E+00    7.2206104115681707E-03
H    2.5073682110811280E+01    2.5076152575916475E+00    2.3879705363809367E+00
H    2.5087679044697232E+01    1.3349768397918391E+00    4.5857542850660797E+00
CA    2.4994861444590196E+01   -7.0926313508663541E-01   -1.2039616423873130E+00
CA    2.4996958691635303E+01    1.4119362835976625E+00   -1.4697315096628214E-03
CA    2.4995191168003991E+01    7.1045281289325546E-01   -1.2095589795619741E+00
CA    2.5006824323029566E+01   -1.4116497255191880E+00   -2.4737692334407040E+00
H    2.5015128273311198E+01    2.5050781881230453E+00   -7.2183753287406250E-03
CA    2.4996919665701416E+01    1.4051499569398533E+00   -2.4751842807894873E+00
CA    2.5006858734000325E+01   -6.7848500696190983E-01   -3.6717073201584789E+00
H    2.4922858042026050E+01   -2.5075591565875128E+00   -2.3879662109096214E+00
CA    2.5001193419795062E+01    7.0369111842155241E-01   -3.6642497159342362E+00
H    2.4986009764544519E+01    2.5056609951070485E+00   -2.4011240885122094E+00
H    2.4909214847770158E+01   -1.3349376751111954E+00   -4.5857077862217377E+00
H    2.5028568590233192E+01    1.2942015001549521E+00   -4.5897561033661072E+00
Ne   -1.2000000000000000E+01   -1.2000000000000000E+01    1.2000000000000000E+01
Ne   -1.2000000000000000E+01   -1.2000000000000000E+01    2.4000000000000000E+01
Ne   -1.2000000000000000E+01   -1.2000000000000000E+01    3.6000000000000000E+01
Ne   -1.2000000000000000E+01    0.0000000000000000E+00   -1.2000000000000000E+01
Ne   -1.2000000000000000E+01    0.0000000000000000E+00    0.0000000000000000E+00
Ne   -1.2000000000000000E+01    0.0000000000000000E+00    1.2000000000000000E+01
Ne   -1.2000000000000000E+01    0.0000000000000000E+00    2.4000000000000000E+01
Ne   -1.2000000000000000E+01    0.0000000000000000E+00    3.6000000000000000E+01
Ne   -1.2000000000000000E+01    1.2000000000000000E+01   -1.2000000000000000E+01
Ne   -1.2000000000000000E+01    1.2000000000000000E+01    0.0000000000000000E+00
Ne   -1.2000000000000000E+01    1.2000000000000000E+01    1.2000000000000000E+01
Ne   -1.2000000000000000E+01    1.2000000000000000E+01    2.4000000000000000E+01
Ne   -1.2000000000000000E+01    1.2000000000000000E+01    3.6000000000000000E+01
Ne   -1.2000000000000000E+01    2.4000000000000000E+01   -1.2000000000000000E+01
Ne   -1.2000000000000000E+01    2.4000000000000000E+01    0.0000000000000000E+00
Ne   -1.2000000000000000E+01    2.4000000000000000E+01    1.2000000000000000E+01
Ne   -1.2000000000000000E+01    2.4000000000000000E+01    2.4000000000000000E+01
Ne   -1.2000000000000000E+01    2.4000000000000000E+01    3.6000000000000000E+01
Ne   -1.2000000000000000E+01    3.6000000000000000E+01   -1.2000000000000000E+01
Ne   -1.2000000000000000E+01    3.6000000000000000E+01    0.0000000000000000E+00
Ne   -1.2000000000000000E+01    3.6000000000000000E+01    1.2000000000000000E+01
Ne   -1.2000000000000000E+01    3.6000000000000000E+01    2.4000000000000000E+01
Ne   -1.2000000000000000E+01    3.6000000000000000E+01    3.6000000000000000E+01
Ne    0.0000000000000000E+00   -1.2000000000000000E+01   -1.2000000000000000E+01
Ne    0.0000000000000000E+00   -1.2000000000000000E+01    0.0000000000000000E+00
Ne    0.0000000000000000E+00   -1.2000000000000000E+01    1.2000000000000000E+01
Ne    0.0000000000000000E+00   -1.2000000000000000E+01    2.4000000000000000E+01
Ne    0.0000000000000000E+00   -1.2000000000000000E+01    3.6000000000000000E+01
Ne    0.0000000000000000E+00    0.0000000000000000E+00   -1.2000000000000000E+01
Ne    0.0000000000000000E+00    0.0000000000000000E+00    1.2000000000000000E+01
Ne    0.0000000000000000E+00    0.0000000000000000E+00    2.4000000000000000E+01
Ne    0.0000000000000000E+00    0.0000000000000000E+00    3.6000000000000000E+01
Ne    0.0000000000000000E+00    1.2000000000000000E+01   -1.2000000000000000E+01
Ne    0.0000000000000000E+00    1.2000000000000000E+01    0.0000000000000000E+00
Ne    0.0000000000000000E+00    1.2000000000000000E+01    1.2000000000000000E+01
Ne    0.0000000000000000E+00    1.2000000000000000E+01    2.4000000000000000E+01
Ne    0.0000000000000000E+00    1.2000000000000000E+01    3.6000000000000000E+01
Ne    0.0000000000000000E+00    2.4000000000000000E+01   -1.2000000000000000E+01
Ne    0.0000000000000000E+00    2.4000000000000000E+01    0.0000000000000000E+00
Ne    0.0000000000000000E+00    2.4000000000000000E+01    1.2000000000000000E+01
Ne    0.0000000000000000E+00    2.4000000000000000E+01    2.4000000000000000E+01
Ne    0.0000000000000000E+00    2.4000000000000000E+01    3.6000000000000000E+01
Ne    0.0000000000000000E+00    3.6000000000000000E+01   -1.2000000000000000E+01
Ne    0.0000000000000000E+00    3.6000000000000000E+01    0.0000000000000000E+00
Ne    0.0000000000000000E+00    3.6000000000000000E+01    1.2000000000000000E+01
Ne    0.0000000000000000E+00    3.6000000000000000E+01    2.4000000000000000E+01
Ne    0.0000000000000000E+00    3.6000000000000000E+01    3.6000000000000000E+01
Ne    1.2000000000000000E+01   -1.2000000000000000E+01   -1.2000000000000000E+01
Ne    1.2000000000000000E+01   -1.2000000000000000E+01    0.0000000000000000E+00
Ne    1.2000000000000000E+01   -1.2000000000000000E+01    1.2000000000000000E+01
Ne    1.2000000000000000E+01   -1.2000000000000000E+01    2.4000000000000000E+01
Ne    1.2000000000000000E+01   -1.2000000000000000E+01    3.6000000000000000E+01
Ne    1.2000000162928501E+01   -1.5554443591038425E-08   -1.1999999606483104E+01
Ne    1.2000000188587940E+01    7.5933249908721640E-10    1.1999999541954658E+01
Ne    1.2000000000000000E+01    0.0000000000000000E+00    2.4000000000000000E+01
Ne    1.2000000000000000E+01    0.0000000000000000E+00    3.6000000000000000E+01
Ne    1.2000000000000000E+01    1.2000000000000000E+01   -1.2000000000000000E+01
Ne    1.2000000000000000E+01    1.2000000000000000E+01    0.0000000000000000E+00
Ne    1.2000000000000000E+01    1.2000000000000000E+01    1.2000000000000000E+01
Ne    1.2000000000000000E+01    1.2000000000000000E+01    2.4000000000000000E+01
Ne    1.2000000000000000E+01    1.2000000000000000E+01    3.6000000000000000E+01
Ne    1.2000000000000000E+01    2.4000000000000000E+01   -1.2000000000000000E+01
Ne    1.2000000000000000E+01    2.4000000000000000E+01    0.0000000000000000E+00
Ne    1.2000000000000000E+01    2.4000000000000000E+01    1.2000000000000000E+01
Ne    1.2000000000000000E+01    2.4000000000000000E+01    2.4000000000000000E+01
Ne    1.2000000000000000E+01    2.4000000000000000E+01    3.6000000000000000E+01
Ne    1.2000000000000000E+01    3.6000000000000000E+01   -1.2000000000000000E+01
Ne    1.2000000000000000E+01    3.6000000000000000E+01    0.0000000000000000E+00
Ne    1.2000000000000000E+01    3.6000000000000000E+01    1.2000000000000000E+01
Ne    1.2000000000000000E+01    3.6000000000000000E+01    2.4000000000000000E+01
Ne    1.2000000000000000E+01    3.6000000000000000E+01    3.6000000000000000E+01
Ne    2.4000000000000000E+01   -1.2000000000000000E+01   -1.2000000000000000E+01
Ne    2.4000000000000000E+01   -1.2000000000000000E+01    0.0000000000000000E+00
Ne    2.4000000000000000E+01   -1.2000000000000000E+01    1.2000000000000000E+01
Ne    2.4000000000000000E+01   -1.2000000000000000E+01    2.4000000000000000E+01
Ne    2.4000000000000000E+01   -1.2000000000000000E+01    3.6000000000000000E+01
Ne    2.4000000291218438E+01    1.3253545810719797E-09   -1.1999997884839829E+01
Ne    2.4000000281436240E+01   -1.8387129663445276E-10    1.1999997878676824E+01
Ne    2.4000000000000000E+01    0.0000000000000000E+00    2.4000000000000000E+01
Ne    2.4000000000000000E+01    0.0000000000000000E+00    3.6000000000000000E+01
Ne    2.4000000000000000E+01    1.2000000000000000E+01   -1.2000000000000000E+01
Ne    2.4000000000000000E+01    1.2000000000000000E+01    0.0000000000000000E+00
Ne    2.4000000000000000E+01    1.2000000000000000E+01    1.2000000000000000E+01
Ne    2.4000000000000000E+01    1.2000000000000000E+01    2.4000000000000000E+01
Ne    2.4000000000000000E+01    1.2000000000000000E+01    3.6000000000000000E+01
Ne    2.4000000000000000E+01    2.4000000000000000E+01   -1.2000000000000000E+01
Ne    2.4000000000000000E+01    2.4000000000000000E+01    0.0000000000000000E+00
Ne    2.4000000000000000E+01    2.4000000000000000E+01    1.2000000000000000E+01
Ne    2.4000000000000000E+01    2.4000000000000000E+01    2.4000000000000000E+01
Ne    2.4000000000000000E+01    2.4000000000000000E+01    3.6000000000000000E+01
Ne    2.4000000000000000E+01    3.6000000000000000E+01   -1.2000000000000000E+01
Ne    2.4000000000000000E+01    3.6000000000000000E+01    0.0000000000000000E+00
Ne    2.4000000000000000E+01    3.6000000000000000E+01    1.2000000000000000E+01
Ne    2.4000000000000000E+01    3.6000000000000000E+01    2.4000000000000000E+01
Ne    2.4000000000000000E+01    3.6000000000000000E+01    3.6000000000000000E+01
Ne    3.6000000000000000E+01   -1.2000000000000000E+01   -1.2000000000000000E+01
Ne    3.6000000000000000E+01   -1.2000000000000000E+01    0.0000000000000000E+00
Ne    3.6000000000000000E+01   -1.2000000000000000E+01    1.2000000000000000E+01
Ne    3.6000000000000000E+01   -1.2000000000000000E+01    2.4000000000000000E+01
Ne    3.6000000000000000E+01   -1.2000000000000000E+01    3.6000000000000000E+01
Ne    3.6000000000000000E+01    0.0000000000000000E+00   -1.2000000000000000E+01
Ne    3.6000000000000000E+01    0.0000000000000000E+00    0.0000000000000000E+00
Ne    3.6000000000000000E+01    0.0000000000000000E+00    1.2000000000000000E+01
Ne    3.6000000000000000E+01    0.0000000000000000E+00    2.4000000000000000E+01
Ne    3.6000000000000000E+01    0.0000000000000000E+00    3.6000000000000000E+01
Ne    3.6000000000000000E+01    1.2000000000000000E+01   -1.2000000000000000E+01
Ne    3.6000000000000000E+01    1.2000000000000000E+01    0.0000000000000000E+00
Ne    3.6000000000000000E+01    1.2000000000000000E+01    1.2000000000000000E+01
Ne    3.6000000000000000E+01    1.2000000000000000E+01    2.4000000000000000E+01
Ne    3.6000000000000000E+01    1.2000000000000000E+01    3.6000000000000000E+01
Ne    3.6000000000000000E+01    2.4000000000000000E+01   -1.2000000000000000E+01
Ne    3.6000000000000000E+01    2.4000000000000000E+01    0.0000000000000000E+00
Ne    3.6000000000000000E+01    2.4000000000000000E+01    1.2000000000000000E+01
Ne    3.6000000000000000E+01    2.4000000000000000E+01    2.4000000000000000E+01
Ne    3.6000000000000000E+01    2.4000000000000000E+01    3.6000000000000000E+01
Ne    3.6000000000000000E+01    3.6000000000000000E+01   -1.2000000000000000E+01
Ne    3.6000000000000000E+01    3.6000000000000000E+01    0.0000000000000000E+00
Ne    3.6000000000000000E+01    3.6000000000000000E+01    1.2000000000000000E+01
Ne    3.6000000000000000E+01    3.6000000000000000E+01    2.4000000000000000E+01
Ne    3.6000000000000000E+01    3.6000000000000000E+01    3.6000000000000000E+01
     &END COORD
     &VELOCITY
           0.0000000000000000E+00    0.0000000000000000E+00    0.0000000000000000E+00
           0.0000000000000000E+00    0.0000000000000000E+00    0.0000000000000000E+00
          -2.1563850663335379E-05    2.0779522446601434E-06    1.7844623832891359E-04
           3.0545949541973919E-05   -2.7287297879892864E-04    6.6870064001082661E-05
           4.5618778748638833E-06    2.7264980749778968E-05    1.3551986360747370E-05
           1.1525820750662684E-05   -2.7260006008575426E-04   -9.1660701532798920E-05
           2.3565392483131050E-05   -1.9890684283812286E-05    1.3541500791577774E-04
           1.3991430819642055E-04    1.0363641098674022E-03   -2.2094687692222302E-03
          -8.4466361028697308E-05    2.8625398250607314E-03    4.9297471030958890E-04
          -9.4521886700145774E-05    3.1396715428987660E-03   -4.8150683003582862E-04
          -1.3689384630389859E-04   -7.8689148380206694E-04   -2.1487240217125409E-03
           7.5216317829651208E-06   -2.7267183823026084E-05   -1.3553004865354197E-05
          -1.2490079827204558E-05    1.9884915487055099E-05   -1.3543124215882951E-04
           1.0030074039330360E-06    2.7261137584431067E-04    9.1661639372776608E-05
          -1.8024129994159211E-05    2.7288380632459295E-04   -6.6872917280135847E-05
           3.2636021091760388E-05   -2.0882297610585669E-06   -1.7842987418703287E-04
           1.4686495064185939E-04    7.8694854263198415E-04    2.1488287104147715E-03
           1.0464613156746088E-04   -3.1397543809627152E-03    4.8150155047521327E-04
           9.4836194038667063E-05   -2.8626285243671208E-03   -4.9297889291353904E-04
          -1.3009269018960490E-04   -1.0363032680795715E-03    2.2093711413245566E-03
          -2.7033306115020688E-05    6.2600163260057322E-06    1.8040279895735511E-04
           2.4312842153715674E-05   -2.7351677528968728E-04    6.4761331897951815E-05
          -1.5573472668619918E-06    2.7191221596141631E-05    1.3555900931116502E-05
           5.3087861478753744E-06   -2.7326996211603439E-04   -8.9553501752782417E-05
           1.8087507918475997E-05   -2.4082934320930154E-05    1.3731526490164659E-04
           1.3484481523570187E-04    1.0252619220464945E-03   -2.2164903592789306E-03