 DBCSR| Multiplication driver                                               XSMM
 DBCSR| Multrec recursion limit                                              512
 DBCSR| Multiplication stack size                                           1000
 DBCSR| Maximum elements for images                                    UNLIMITED
 DBCSR| Randmat seed                                                    12341313
 DBCSR| Multiplication size stacks                                             3


  **** **** ******  **  PROGRAM STARTED AT               2021-04-29 14:23:29.600
 ***** ** ***  *** **   PROGRAM STARTED ON               bulstake.phys.ucl.ac.uk
 **    ****   ******    PROGRAM STARTED BY                             sgiannini
 ***** **    ** ** **   PROGRAM PROCESS ID                                 12993
  **** **  *******  **  PROGRAM STARTED IN /scratch/sgiannini/REG_TEST_MERGING/3
                                           7-071a0540f1_code_extension_V3_ADJ/ru
                                           n-fssh-MTS1_FROZEN_C_FIRST_OFF

 CP2K| version string:                    CP2K version 4.0 (Development Version)
 CP2K| source code revision number:                                  git:1080fc1
 CP2K| cp2kflags: libint fftw3 libxc quip smm_dnn smm libxsmm libderiv_max_am1=5
 CP2K|             libint_max_am=6
 CP2K| is freely available from                            https://www.cp2k.org/
 CP2K| Program compiled at                          Thu 29 Apr 10:11:08 BST 2021
 CP2K| Program compiled on                               bulstake.phys.ucl.ac.uk
 CP2K| Program compiled for                                         local_hetero
 CP2K| Data directory path           /scratch/sgiannini/flavoured-cptk/cp2k/data
 CP2K| Input file name                                                   run.inp

 GLOBAL| Force Environment number                                              1
 GLOBAL| Basis set file name                                           POTENTIAL
 GLOBAL| MM Potential file name                                     MM_POTENTIAL
 GLOBAL| Coordinate file name                                       pos-init.xyz
 GLOBAL| Force Environment number                                              2
 GLOBAL| Basis set file name                                           POTENTIAL
 GLOBAL| MM Potential file name                                     MM_POTENTIAL
 GLOBAL| Coordinate file name                                       pos-init.xyz
 GLOBAL| Force Environment number                                              3
 GLOBAL| Basis set file name                                           POTENTIAL
 GLOBAL| MM Potential file name                                     MM_POTENTIAL
 GLOBAL| Coordinate file name                                       pos-init.xyz
 GLOBAL| Method name                                                        CP2K
 GLOBAL| Project name                                                        run
 GLOBAL| Preferred FFT library                                             FFTW3
 GLOBAL| Preferred diagonalization lib.                                       SL
 GLOBAL| Run type                                                             MD
 GLOBAL| All-to-all communication in single precision                          F
 GLOBAL| FFTs using library dependent lengths                                  F
 GLOBAL| Global print level                                                  LOW
 GLOBAL| Total number of message passing processes                             1
 GLOBAL| Number of threads for this process                                    1
 GLOBAL| This output is from process                                           0
 GLOBAL| CPU model name :  Intel(R) Xeon(R) CPU E5-2687W v4 @ 3.00GHz

 MEMORY| system memory details [Kb]
 MEMORY|                        rank 0           min           max       average
 MEMORY| MemTotal             65894336      65894336      65894336      65894336
 MEMORY| MemFree               6851808       6851808       6851808       6851808
 MEMORY| Buffers                  8744          8744          8744          8744
 MEMORY| Cached               40779116      40779116      40779116      40779116
 MEMORY| Slab                  3236700       3236700       3236700       3236700
 MEMORY| SReclaimable          2479316       2479316       2479316       2479316
 MEMORY| MemLikelyFree        50118984      50118984      50118984      50118984

 TOTAL NUMBER OF FORCE EVALS           3
 NOTE:n_subforce_eval           2
 DECOMP =  T
 DECOMP =  T

 MD| Molecular Dynamics Protocol 
 MD| Ensemble Type                                                           NVE
 MD| Number of Time Steps                                                    200
 MD| Time Step [fs]                                                         0.10
 MD| Temperature [K]                                                      400.00
 MD| Temperature tolerance [K]                                              0.00
 MD| Print MD information every                                        1 step(s)
 MD| File type     Print frequency[steps]                             File names
 MD| Coordinates          200                                      run-pos-1.xyz
 MD| Velocities             1                                      run-vel-1.xyz
 MD| Energies               1                                         run-1.ener
 MD| Dump                 200                                      run-1.restart

 ROT| Rotational Analysis Info 
 ROT| Principal axes and moments of inertia in atomic units:
 ROT|                                1                 2                 3
 ROT| EIGENVALUES            0.319196005E+10   0.583971964E+10   0.882037602E+10
 ROT|      X                     0.997631408       0.066105605       0.019016393
 ROT|      Y                     0.066118536      -0.997811774      -0.000051363
 ROT|      Z                    -0.018971385      -0.001308578       0.999819171
 ROT| Numer of Rotovibrational vectors:     6

 Calculation of degrees of freedom
                                                      Number of atoms:       900
                                 Number of Intramolecular constraints:         0
                                 Number of Intermolecular constraints:         0
                                  Invariants(translation + rotations):         3
                                                   Degrees of freedom:      2697


 Restraints Information
                                  Number of Intramolecular restraints:         0
                                  Number of Intermolecular restraints:         0

 *** WARNING in motion/thermostat/thermostat_methods.F:280 :: Thermostat ***
 *** for Particles has been defined but the ensemble provided does not   ***
 *** support thermostat for Particles! Ignoring thermostat input.        ***

 ************************** Velocities initialization **************************
 Initial Temperature                                                    564.84 K
 COM velocity:           -0.000000000004     -0.000000000000      0.000000000001
 *******************************************************************************

 FIRST CALL: force_env_calc_energy_force
 RESTART_KEY F
 ACTIVE STATE           3
 FOBSH| ACTIVE STATE =            3

 ENERGY| Total FORCE_EVAL ( MIXED ) energy (a.u.):             2.446981654967435

 STEP NUMBER                  =            0
 CPU TIME [s]                 =    0.0000000000000000        0.0000000000000000     

 MD_ENERGIES| Initialization proceeding


 ******************************** GO CP2K GO! **********************************
 INITIAL POTENTIAL ENERGY[hartree]     =                      0.244698165497E+01
 INITIAL KINETIC ENERGY[hartree]       =                      0.241212372912E+01
 INITIAL TEMPERATURE[K]                =                                 564.841
 INITIAL VOLUME[bohr^3]                =                      0.580604601118E+05
 INITIAL CELL LNTHS[bohr]   =      0.7651501E+02   0.5624770E+02   0.1634991E+02
 INITIAL CELL ANGLS[deg]    =      0.9000000E+02   0.1244000E+03   0.9000000E+02
 ******************************** GO CP2K GO! **********************************
 FOBSH| New map:            1           2           0           0           5           6           7           8
 FOBSH! New map again:           1           2           0           0           5           6           7           8
 FOBSH| Put former active state           3 in new active state           3
 FOBSH| *** WARNING: difference between exact flux and sum of Tully's proba is   2.4918102643952089      ***
 RANDOM_NUMBER_HOPPING_PROBA  0.52706805747704488     
 FOBSH| ATTEMPTED_HOP
 FOBSH| ACTIVE STATE =            3

 ENERGY| Total FORCE_EVAL ( MIXED ) energy (a.u.):             2.418359458280365

 FOBSH| Active state before the attempt to hop:           3

 ENERGY| Total FORCE_EVAL ( MIXED ) energy (a.u.):             2.418407460049029

 FOBSH| Active state after the attempt to hop:           4
 FOBSH| Possible trivial crossing
 FOBSH| CASE5: successful hop and maybe a crossing, final overlap is :  0.46010487901602543     
 FOBSH| We were localized on molecule           1
 FOBSH| And now on molecule           1
 ENTER integrator.F
 STEP NUMBER                  =            1
 CPU TIME [s]                 =   0.63590222410857677       0.63590222410857677     

 *******************************************************************************
 ENSEMBLE TYPE                =                                              NVE
 STEP NUMBER                  =                                                1
 TIME [fs]                    =                                         0.100000
 CONSERVED QUANTITY [hartree] =                               0.485908240475E+01

                                              INSTANTANEOUS             AVERAGES
 CPU TIME [s]                 =                        0.64                 0.64
 ENERGY DRIFT PER ATOM [K]    =         -0.806254754185E-02   0.000000000000E+00
 POTENTIAL ENERGY[hartree]    =          0.241840746005E+01   0.241840746005E+01
 KINETIC ENERGY [hartree]     =          0.244067494470E+01   0.244067494470E+01
 TEMPERATURE [K]              =                     571.526              571.526
 *******************************************************************************

 FOBSH| Put former active state           4 in new active state           4
 RANDOM_NUMBER_HOPPING_PROBA  0.66567659016249958     
 FOBSH| ACTIVE STATE =            4

 ENERGY| Total FORCE_EVAL ( MIXED ) energy (a.u.):             2.391190327971920

 FOBSH| CASE1: no hop and no trivial crossing
 ENTER integrator.F
 STEP NUMBER                  =            2
 CPU TIME [s]                 =    9.6443604677915573E-002  0.36617291439324617     

 *******************************************************************************
 ENSEMBLE TYPE                =                                              NVE
 STEP NUMBER                  =                                                2
 TIME [fs]                    =                                         0.200000
 CONSERVED QUANTITY [hartree] =                               0.485906295350E+01

                                              INSTANTANEOUS             AVERAGES
 CPU TIME [s]                 =                        0.10                 0.37
 ENERGY DRIFT PER ATOM [K]    =         -0.148872270424E-01  -0.744361352119E-02
 POTENTIAL ENERGY[hartree]    =          0.239119032797E+01   0.240479889401E+01
 KINETIC ENERGY [hartree]     =          0.246787262553E+01   0.245427378512E+01
 TEMPERATURE [K]              =                     577.895              574.711
 *******************************************************************************

 FOBSH| Put former active state           4 in new active state           4
 RANDOM_NUMBER_HOPPING_PROBA  0.62850201519402193     
 FOBSH| ACTIVE STATE =            4

 ENERGY| Total FORCE_EVAL ( MIXED ) energy (a.u.):             2.365679810480124

 FOBSH| CASE1: no hop and no trivial crossing
 ENTER integrator.F
 STEP NUMBER                  =            3
 CPU TIME [s]                 =    7.5470674782991409E-002  0.26927216785649455     

 *******************************************************************************
 ENSEMBLE TYPE                =                                              NVE
 STEP NUMBER                  =                                                3
 TIME [fs]                    =                                         0.300000
 CONSERVED QUANTITY [hartree] =                               0.485904385691E+01

                                              INSTANTANEOUS             AVERAGES
 CPU TIME [s]                 =                        0.08                 0.27
 ENERGY DRIFT PER ATOM [K]    =         -0.215874705947E-01  -0.121582325457E-01
 POTENTIAL ENERGY[hartree]    =          0.236567981048E+01   0.239175919950E+01
 KINETIC ENERGY [hartree]     =          0.249336404643E+01   0.246730387222E+01
 TEMPERATURE [K]              =                     583.864              577.762
 *******************************************************************************

 FOBSH| Put former active state           4 in new active state           4
 RANDOM_NUMBER_HOPPING_PROBA  0.19697258807027210     
 FOBSH| ACTIVE STATE =            4

 ENERGY| Total FORCE_EVAL ( MIXED ) energy (a.u.):             2.342178573273691

 FOBSH| CASE1: no hop and no trivial crossing
 ENTER integrator.F
 STEP NUMBER                  =            4
 CPU TIME [s]                 =    5.7875407859683037E-002  0.21642297785729167     

 *******************************************************************************
 ENSEMBLE TYPE                =                                              NVE
 STEP NUMBER                  =                                                4
 TIME [fs]                    =                                         0.400000
 CONSERVED QUANTITY [hartree] =                               0.485902650987E+01

                                              INSTANTANEOUS             AVERAGES
 CPU TIME [s]                 =                        0.06                 0.22
 ENERGY DRIFT PER ATOM [K]    =         -0.276738657266E-01  -0.160371408409E-01
 POTENTIAL ENERGY[hartree]    =          0.234217857327E+01   0.237936404294E+01
 KINETIC ENERGY [hartree]     =          0.251684793660E+01   0.247968988832E+01
 TEMPERATURE [K]              =                     589.364              580.662
 *******************************************************************************

 FOBSH| Put former active state           4 in new active state           4
 RANDOM_NUMBER_HOPPING_PROBA  0.62364035814935215     
 FOBSH| ACTIVE STATE =            4

 ENERGY| Total FORCE_EVAL ( MIXED ) energy (a.u.):             2.320961778436552

 FOBSH| CASE1: no hop and no trivial crossing
 ENTER integrator.F
 STEP NUMBER                  =            5
 CPU TIME [s]                 =    7.2992816567420959E-002  0.18773694559931753     

 *******************************************************************************
 ENSEMBLE TYPE                =                                              NVE
 STEP NUMBER                  =                                                5
 TIME [fs]                    =                                         0.500000
 CONSERVED QUANTITY [hartree] =                               0.485901120533E+01

                                              INSTANTANEOUS             AVERAGES
 CPU TIME [s]                 =                        0.07                 0.19
 ENERGY DRIFT PER ATOM [K]    =         -0.330436276236E-01  -0.194384381975E-01
 POTENTIAL ENERGY[hartree]    =          0.232096177844E+01   0.236768359004E+01
 KINETIC ENERGY [hartree]     =          0.253804942689E+01   0.249136179603E+01
 TEMPERATURE [K]              =                     594.328              583.396
 *******************************************************************************

 FOBSH| Put former active state           4 in new active state           4
 RANDOM_NUMBER_HOPPING_PROBA  0.71780466621354477     
 FOBSH| ACTIVE STATE =            4

 ENERGY| Total FORCE_EVAL ( MIXED ) energy (a.u.):             2.302271837292782

 FOBSH| CASE1: no hop and no trivial crossing
 ENTER integrator.F
 STEP NUMBER                  =            6
 CPU TIME [s]                 =    5.9263493865728378E-002  0.16632470364371932     

 *******************************************************************************
 ENSEMBLE TYPE                =                                              NVE
 STEP NUMBER                  =                                                6
 TIME [fs]                    =                                         0.600000
 CONSERVED QUANTITY [hartree] =                               0.485899813438E+01

                                              INSTANTANEOUS             AVERAGES
 CPU TIME [s]                 =                        0.06                 0.17
 ENERGY DRIFT PER ATOM [K]    =         -0.376297101073E-01  -0.224703168491E-01
 POTENTIAL ENERGY[hartree]    =          0.230227183729E+01   0.235678163125E+01
 KINETIC ENERGY [hartree]     =          0.255672629709E+01   0.250225587954E+01
 TEMPERATURE [K]              =                     598.702              585.947
 *******************************************************************************

 FOBSH| Put former active state           4 in new active state           4
 RANDOM_NUMBER_HOPPING_PROBA  0.16418834476526262     
 FOBSH| ACTIVE STATE =            4

 ENERGY| Total FORCE_EVAL ( MIXED ) energy (a.u.):             2.286315181087831

 FOBSH| CASE1: no hop and no trivial crossing
 ENTER integrator.F
 STEP NUMBER                  =            7
 CPU TIME [s]                 =    7.1407342329621315E-002  0.15276508059884816     

 *******************************************************************************
 ENSEMBLE TYPE                =                                              NVE
 STEP NUMBER                  =                                                7
 TIME [fs]                    =                                         0.700000
 CONSERVED QUANTITY [hartree] =                               0.485898748367E+01

                                              INSTANTANEOUS             AVERAGES
 CPU TIME [s]                 =                        0.07                 0.15
 ENERGY DRIFT PER ATOM [K]    =         -0.413666282216E-01  -0.251697899023E-01
 POTENTIAL ENERGY[hartree]    =          0.228631518109E+01   0.234671499551E+01
 KINETIC ENERGY [hartree]     =          0.257267230258E+01   0.251231536855E+01
 TEMPERATURE [K]              =                     602.436              588.302
 *******************************************************************************

 FOBSH| Put former active state           4 in new active state           4
 RANDOM_NUMBER_HOPPING_PROBA  0.13146703861307912     
 FOBSH| ACTIVE STATE =            4

 ENERGY| Total FORCE_EVAL ( MIXED ) energy (a.u.):             2.273259559570018

 FOBSH| CASE1: no hop and no trivial crossing
 ENTER integrator.F
 STEP NUMBER                  =            8
 CPU TIME [s]                 =    7.3978321626782417E-002  0.14291673572733996     

 *******************************************************************************
 ENSEMBLE TYPE                =                                              NVE
 STEP NUMBER                  =                                                8
 TIME [fs]                    =                                         0.800000
 CONSERVED QUANTITY [hartree] =                               0.485897936823E+01

                                              INSTANTANEOUS             AVERAGES
 CPU TIME [s]                 =                        0.07                 0.14
 ENERGY DRIFT PER ATOM [K]    =         -0.442140156115E-01  -0.275503181160E-01
 POTENTIAL ENERGY[hartree]    =          0.227325955957E+01   0.233753306602E+01
 KINETIC ENERGY [hartree]     =          0.258571980866E+01   0.252149092356E+01
 TEMPERATURE [K]              =                     605.491              590.451
 *******************************************************************************

 FOBSH| Put former active state           4 in new active state           4
 RANDOM_NUMBER_HOPPING_PROBA  0.51288349360222152     
 FOBSH| ACTIVE STATE =            4

 ENERGY| Total FORCE_EVAL ( MIXED ) energy (a.u.):             2.263232002606009

 FOBSH| CASE1: no hop and no trivial crossing
 ENTER integrator.F
 STEP NUMBER                  =            9
 CPU TIME [s]                 =    5.9332322329282761E-002  0.13362957868311137     

 *******************************************************************************
 ENSEMBLE TYPE                =                                              NVE
 STEP NUMBER                  =                                                9
 TIME [fs]                    =                                         0.900000
 CONSERVED QUANTITY [hartree] =                               0.485897389846E+01

                                              INSTANTANEOUS             AVERAGES
 CPU TIME [s]                 =                        0.06                 0.13
 ENERGY DRIFT PER ATOM [K]    =         -0.461331439864E-01  -0.296150765460E-01
 POTENTIAL ENERGY[hartree]    =          0.226323200261E+01   0.232927739231E+01
 KINETIC ENERGY [hartree]     =          0.259574189585E+01   0.252974103159E+01
 TEMPERATURE [K]              =                     607.838              592.383
 *******************************************************************************

 FOBSH| Put former active state           4 in new active state           4
 RANDOM_NUMBER_HOPPING_PROBA  0.31200530121501135     
 FOBSH| ACTIVE STATE =            4

 ENERGY| Total FORCE_EVAL ( MIXED ) energy (a.u.):             2.256317218840457

 FOBSH| CASE1: no hop and no trivial crossing
 ENTER integrator.F
 STEP NUMBER                  =           10
 CPU TIME [s]                 =    7.3809303343296051E-002  0.12764755114912985     

 *******************************************************************************
 ENSEMBLE TYPE                =                                              NVE
 STEP NUMBER                  =                                               10
 TIME [fs]                    =                                         1.000000
 CONSERVED QUANTITY [hartree] =                               0.485897112701E+01

                                              INSTANTANEOUS             AVERAGES
 CPU TIME [s]                 =                        0.07                 0.13
 ENERGY DRIFT PER ATOM [K]    =         -0.471055345942E-01  -0.313641223508E-01
 POTENTIAL ENERGY[hartree]    =          0.225631721884E+01   0.232198137496E+01
 KINETIC ENERGY [hartree]     =          0.260265390817E+01   0.253703231925E+01
 TEMPERATURE [K]              =                     609.457              594.090
 *******************************************************************************

 FOBSH| Put former active state           4 in new active state           4
 RANDOM_NUMBER_HOPPING_PROBA  0.33142058177280265     
 FOBSH| ACTIVE STATE =            4

 ENERGY| Total FORCE_EVAL ( MIXED ) energy (a.u.):             2.252556640703820

 FOBSH| CASE1: no hop and no trivial crossing
 ENTER integrator.F
 STEP NUMBER                  =           11
 CPU TIME [s]                 =    7.4499484151601791E-002  0.12281590869480911     

 *******************************************************************************
 ENSEMBLE TYPE                =                                              NVE
 STEP NUMBER                  =                                               11
 TIME [fs]                    =                                         1.100000
 CONSERVED QUANTITY [hartree] =                               0.485897109161E+01

                                              INSTANTANEOUS             AVERAGES
 CPU TIME [s]                 =                        0.07                 0.12
 ENERGY DRIFT PER ATOM [K]    =         -0.471179566253E-01  -0.327962891031E-01
 POTENTIAL ENERGY[hartree]    =          0.225255664070E+01   0.231567003548E+01
 KINETIC ENERGY [hartree]     =          0.260641445091E+01   0.254333978577E+01
 TEMPERATURE [K]              =                     610.337              595.567
 *******************************************************************************

 FOBSH| Put former active state           4 in new active state           4
 RANDOM_NUMBER_HOPPING_PROBA  0.27413217002048423     
 FOBSH| ACTIVE STATE =            4

 ENERGY| Total FORCE_EVAL ( MIXED ) energy (a.u.):             2.251947957613000

 FOBSH| CASE1: no hop and no trivial crossing
 ENTER integrator.F
 STEP NUMBER                  =           12
 CPU TIME [s]                 =    5.9403175488114357E-002  0.11753151426091787     

 *******************************************************************************
 ENSEMBLE TYPE                =                                              NVE
 STEP NUMBER                  =                                               12
 TIME [fs]                    =                                         1.200000
 CONSERVED QUANTITY [hartree] =                               0.485897375848E+01

                                              INSTANTANEOUS             AVERAGES
 CPU TIME [s]                 =                        0.06                 0.12
 ENERGY DRIFT PER ATOM [K]    =         -0.461822551253E-01  -0.339117862716E-01
 POTENTIAL ENERGY[hartree]    =          0.225194795761E+01   0.231035986233E+01
 KINETIC ENERGY [hartree]     =          0.260702580087E+01   0.254864695369E+01
 TEMPERATURE [K]              =                     610.480              596.810
 *******************************************************************************

 FOBSH| Put former active state           4 in new active state           4
 RANDOM_NUMBER_HOPPING_PROBA  0.87583701013915671     
 FOBSH| ACTIVE STATE =            4

 ENERGY| Total FORCE_EVAL ( MIXED ) energy (a.u.):             2.254445401656622

 FOBSH| CASE1: no hop and no trivial crossing
 ENTER integrator.F
 STEP NUMBER                  =           13
 CPU TIME [s]                 =    7.3463367298245430E-002  0.11414165680225076     

 *******************************************************************************
 ENSEMBLE TYPE                =                                              NVE
 STEP NUMBER                  =                                               13
 TIME [fs]                    =                                         1.300000
 CONSERVED QUANTITY [hartree] =                               0.485897909983E+01

                                              INSTANTANEOUS             AVERAGES
 CPU TIME [s]                 =                        0.07                 0.11
 ENERGY DRIFT PER ATOM [K]    =         -0.443081883589E-01  -0.347115095091E-01
 POTENTIAL ENERGY[hartree]    =          0.225444540166E+01   0.230605874997E+01
 KINETIC ENERGY [hartree]     =          0.260453369817E+01   0.255294593404E+01
 TEMPERATURE [K]              =                     609.897              597.817
 *******************************************************************************

 FOBSH| Put former active state           4 in new active state           4
 RANDOM_NUMBER_HOPPING_PROBA  0.53722623939231462     
 FOBSH| ACTIVE STATE =            4

 ENERGY| Total FORCE_EVAL ( MIXED ) energy (a.u.):             2.259960406375580

 FOBSH| CASE1: no hop and no trivial crossing
 ENTER integrator.F
 STEP NUMBER                  =           14
 CPU TIME [s]                 =    6.2181761488318443E-002  0.11043023570839844     

 *******************************************************************************
 ENSEMBLE TYPE                =                                              NVE
 STEP NUMBER                  =                                               14
 TIME [fs]                    =                                         1.400000
 CONSERVED QUANTITY [hartree] =                               0.485898702773E+01

                                              INSTANTANEOUS             AVERAGES
 CPU TIME [s]                 =                        0.06                 0.11
 ENERGY DRIFT PER ATOM [K]    =         -0.415265968064E-01  -0.351983014589E-01
 POTENTIAL ENERGY[hartree]    =          0.225996040638E+01   0.230276601114E+01
 KINETIC ENERGY [hartree]     =          0.259902662136E+01   0.255623741170E+01
 TEMPERATURE [K]              =                     608.607              598.587
 *******************************************************************************

 FOBSH| Put former active state           4 in new active state           4
 RANDOM_NUMBER_HOPPING_PROBA  0.51392675957101541     
 FOBSH| ACTIVE STATE =            4

 ENERGY| Total FORCE_EVAL ( MIXED ) energy (a.u.):             2.268362914602449

 FOBSH| CASE1: no hop and no trivial crossing
 ENTER integrator.F
 STEP NUMBER                  =           15
 CPU TIME [s]                 =    7.3367675766348839E-002  0.10795939837892847     

 *******************************************************************************
 ENSEMBLE TYPE                =                                              NVE
 STEP NUMBER                  =                                               15
 TIME [fs]                    =                                         1.500000
 CONSERVED QUANTITY [hartree] =                               0.485899743919E+01

                                              INSTANTANEOUS             AVERAGES
 CPU TIME [s]                 =                        0.07                 0.11
 ENERGY DRIFT PER ATOM [K]    =         -0.378736247196E-01  -0.353766563429E-01
 POTENTIAL ENERGY[hartree]    =          0.226836291460E+01   0.230047247137E+01
 KINETIC ENERGY [hartree]     =          0.259063452459E+01   0.255853055256E+01
 TEMPERATURE [K]              =                     606.642              599.124
 *******************************************************************************

 FOBSH| Put former active state           4 in new active state           4
 RANDOM_NUMBER_HOPPING_PROBA  0.46440041474888250     
 FOBSH| ACTIVE STATE =            4

 ENERGY| Total FORCE_EVAL ( MIXED ) energy (a.u.):             2.279483157867185

 FOBSH| CASE1: no hop and no trivial crossing
 ENTER integrator.F
 STEP NUMBER                  =           16
 CPU TIME [s]                 =    7.9573901370167732E-002  0.10618530481588093     

 *******************************************************************************
 ENSEMBLE TYPE                =                                              NVE
 STEP NUMBER                  =                                               16
 TIME [fs]                    =                                         1.600000
 CONSERVED QUANTITY [hartree] =                               0.485901017081E+01

                                              INSTANTANEOUS             AVERAGES
 CPU TIME [s]                 =                        0.08                 0.11
 ENERGY DRIFT PER ATOM [K]    =         -0.334065998631E-01  -0.352535278129E-01
 POTENTIAL ENERGY[hartree]    =          0.227948315787E+01   0.229916063928E+01
 KINETIC ENERGY [hartree]     =          0.257952701294E+01   0.255984283133E+01
 TEMPERATURE [K]              =                     604.041              599.432
 *******************************************************************************

 FOBSH| Put former active state           4 in new active state           4
 RANDOM_NUMBER_HOPPING_PROBA  0.33981241161957892     
 FOBSH| ACTIVE STATE =            4

 ENERGY| Total FORCE_EVAL ( MIXED ) energy (a.u.):             2.293114134381476

 FOBSH| CASE1: no hop and no trivial crossing
 ENTER integrator.F
 STEP NUMBER                  =           17
 CPU TIME [s]                 =    5.8438684791326523E-002  0.10337668010855419     

 *******************************************************************************
 ENSEMBLE TYPE                =                                              NVE
 STEP NUMBER                  =                                               17
 TIME [fs]                    =                                         1.700000
 CONSERVED QUANTITY [hartree] =                               0.485902504897E+01

                                              INSTANTANEOUS             AVERAGES
 CPU TIME [s]                 =                        0.06                 0.10
 ENERGY DRIFT PER ATOM [K]    =         -0.281864395017E-01  -0.348378167358E-01
 POTENTIAL ENERGY[hartree]    =          0.229311413438E+01   0.229880496252E+01
 KINETIC ENERGY [hartree]     =          0.256591091459E+01   0.256019977741E+01
 TEMPERATURE [K]              =                     600.853              599.515
 *******************************************************************************

 FOBSH| Put former active state           4 in new active state           4
 RANDOM_NUMBER_HOPPING_PROBA  0.68305462949801310     
 FOBSH| ACTIVE STATE =            4

 ENERGY| Total FORCE_EVAL ( MIXED ) energy (a.u.):             2.309014459155299

 FOBSH| CASE1: no hop and no trivial crossing
 ENTER integrator.F
 STEP NUMBER                  =           18
 CPU TIME [s]                 =    5.6569881737232208E-002  0.10077630242125853     

 *******************************************************************************
 ENSEMBLE TYPE                =                                              NVE
 STEP NUMBER                  =                                               18
 TIME [fs]                    =                                         1.800000
 CONSERVED QUANTITY [hartree] =                               0.485904186865E+01

                                              INSTANTANEOUS             AVERAGES
 CPU TIME [s]                 =                        0.06                 0.10
 ENERGY DRIFT PER ATOM [K]    =         -0.222850739752E-01  -0.341404421380E-01
 POTENTIAL ENERGY[hartree]    =          0.230901445916E+01   0.229937215678E+01
 KINETIC ENERGY [hartree]     =          0.255002740949E+01   0.255963464586E+01
 TEMPERATURE [K]              =                     597.133              599.383
 *******************************************************************************

 FOBSH! Reorgering: for state           7  we stay in with overlap -0.68546496102780829       instead of goind to            8 with overlap  0.72801172637019551     
 FOBSH! Reorgering: for state           8  we stay in with overlap -0.68540693497201577       instead of goind to            7 with overlap -0.72808810727780782     
 FOBSH| New map:            1           2           3           4           5           6           0           0
 FOBSH! New map again:           1           2           3           4           5           6           0           0
 FOBSH| Put former active state           4 in new active state           4
 RANDOM_NUMBER_HOPPING_PROBA  0.89266899010984935     
 FOBSH| ACTIVE STATE =            4

 ENERGY| Total FORCE_EVAL ( MIXED ) energy (a.u.):             2.326911647890928

 FOBSH| CASE1: no hop and no trivial crossing
 ENTER integrator.F
 STEP NUMBER                  =           19
 CPU TIME [s]                 =    7.1189712733030319E-002   9.9219113490299146E-002

 *******************************************************************************
 ENSEMBLE TYPE                =                                              NVE
 STEP NUMBER                  =                                               19
 TIME [fs]                    =                                         1.900000
 CONSERVED QUANTITY [hartree] =                               0.485906040395E+01

                                              INSTANTANEOUS             AVERAGES
 CPU TIME [s]                 =                        0.07                 0.10
 ENERGY DRIFT PER ATOM [K]    =         -0.157817650978E-01  -0.331741959780E-01
 POTENTIAL ENERGY[hartree]    =          0.232691164789E+01   0.230082160368E+01
 KINETIC ENERGY [hartree]     =          0.253214875606E+01   0.255818802008E+01
 TEMPERATURE [K]              =                     592.947              599.044
 *******************************************************************************

 FOBSH| New map:            1           2           3           4           5           6           0           0
 FOBSH! New map again:           1           2           3           4           5           6           0           0
 FOBSH| Put former active state           4 in new active state           4
 RANDOM_NUMBER_HOPPING_PROBA  0.37393966498306264     
 FOBSH| ACTIVE STATE =            4

 ENERGY| Total FORCE_EVAL ( MIXED ) energy (a.u.):             2.346505790125124

 FOBSH| CASE1: no hop and no trivial crossing
 ENTER integrator.F
 STEP NUMBER                  =           20
 CPU TIME [s]                 =    5.9271272271871567E-002   9.7221721429377780E-002

 *******************************************************************************
 ENSEMBLE TYPE                =                                              NVE
 STEP NUMBER                  =                                               20
 TIME [fs]                    =                                         2.000000
 CONSERVED QUANTITY [hartree] =                               0.485908038887E+01

                                              INSTANTANEOUS             AVERAGES
 CPU TIME [s]                 =                        0.06                 0.10
 ENERGY DRIFT PER ATOM [K]    =         -0.876984310761E-02  -0.319539783345E-01
 POTENTIAL ENERGY[hartree]    =          0.234650579013E+01   0.230310581300E+01
 KINETIC ENERGY [hartree]     =          0.251257459874E+01   0.255590734901E+01
 TEMPERATURE [K]              =                     588.363              598.510
 *******************************************************************************

 FOBSH| Put former active state           4 in new active state           4
 RANDOM_NUMBER_HOPPING_PROBA  0.29483768654201153     
 FOBSH| ACTIVE STATE =            4

 ENERGY| Total FORCE_EVAL ( MIXED ) energy (a.u.):             2.367473696043840

 FOBSH| CASE1: no hop and no trivial crossing
 ENTER integrator.F
 STEP NUMBER                  =           21
 CPU TIME [s]                 =    7.2122722864151001E-002   9.6026531021509820E-002

 *******************************************************************************
 ENSEMBLE TYPE                =                                              NVE
 STEP NUMBER                  =                                               21
 TIME [fs]                    =                                         2.100000
 CONSERVED QUANTITY [hartree] =                               0.485910155178E+01

                                              INSTANTANEOUS             AVERAGES
 CPU TIME [s]                 =                        0.07                 0.10
 ENERGY DRIFT PER ATOM [K]    =         -0.134460803082E-02  -0.304963892724E-01
 POTENTIAL ENERGY[hartree]    =          0.236747369604E+01   0.230617095029E+01
 KINETIC ENERGY [hartree]     =          0.249162785573E+01   0.255284642076E+01
 TEMPERATURE [K]              =                     583.458              597.793
 *******************************************************************************

 FOBSH| Put former active state           4 in new active state           4
 RANDOM_NUMBER_HOPPING_PROBA  0.16126713006374499     
 FOBSH| ACTIVE STATE =            4

 ENERGY| Total FORCE_EVAL ( MIXED ) energy (a.u.):             2.389473303145753

 FOBSH| CASE1: no hop and no trivial crossing
 ENTER integrator.F
 STEP NUMBER                  =           22
 CPU TIME [s]                 =    7.3529116809368134E-002   9.5003921284594284E-002

 *******************************************************************************
 ENSEMBLE TYPE                =                                              NVE
 STEP NUMBER                  =                                               22
 TIME [fs]                    =                                         2.200000
 CONSERVED QUANTITY [hartree] =                               0.485912360440E+01

                                              INSTANTANEOUS             AVERAGES
 CPU TIME [s]                 =                        0.07                 0.10
 ENERGY DRIFT PER ATOM [K]    =          0.639278951776E-02  -0.288196084183E-01
 POTENTIAL ENERGY[hartree]    =          0.238947330315E+01   0.230995742087E+01
 KINETIC ENERGY [hartree]     =          0.246965030125E+01   0.254906477896E+01
 TEMPERATURE [K]              =                     578.311              596.908
 *******************************************************************************

 FOBSH| Put former active state           4 in new active state           4
 RANDOM_NUMBER_HOPPING_PROBA  0.99880020244755841     
 FOBSH| ACTIVE STATE =            4

 ENERGY| Total FORCE_EVAL ( MIXED ) energy (a.u.):             2.412148306690107

 FOBSH| CASE1: no hop and no trivial crossing
 ENTER integrator.F
 STEP NUMBER                  =           23
 CPU TIME [s]                 =    5.8490319177508354E-002   9.3416373366894886E-002

 *******************************************************************************
 ENSEMBLE TYPE                =                                              NVE
 STEP NUMBER                  =                                               23
 TIME [fs]                    =                                         2.300000
 CONSERVED QUANTITY [hartree] =                               0.485914626047E+01

                                              INSTANTANEOUS             AVERAGES
 CPU TIME [s]                 =                        0.06                 0.09
 ENERGY DRIFT PER ATOM [K]    =          0.143419162988E-01  -0.269430203871E-01
 POTENTIAL ENERGY[hartree]    =          0.241214830669E+01   0.231440050286E+01
 KINETIC ENERGY [hartree]     =          0.244699795378E+01   0.254462709091E+01
 TEMPERATURE [K]              =                     573.007              595.869
 *******************************************************************************

 FOBSH| Put former active state           4 in new active state           4
 RANDOM_NUMBER_HOPPING_PROBA   4.6356293755143212E-002
 FOBSH| ACTIVE STATE =            4

 ENERGY| Total FORCE_EVAL ( MIXED ) energy (a.u.):             2.435132910667680

 FOBSH| CASE1: no hop and no trivial crossing
 ENTER integrator.F
 STEP NUMBER                  =           24
 CPU TIME [s]                 =    7.2287688031792641E-002   9.2536011477932292E-002

 *******************************************************************************
 ENSEMBLE TYPE                =                                              NVE
 STEP NUMBER                  =                                               24
 TIME [fs]                    =                                         2.400000
 CONSERVED QUANTITY [hartree] =                               0.485916918884E+01

                                              INSTANTANEOUS             AVERAGES
 CPU TIME [s]                 =                        0.07                 0.09
 ENERGY DRIFT PER ATOM [K]    =          0.223865810339E-01  -0.248876203279E-01
 POTENTIAL ENERGY[hartree]    =          0.243513291067E+01   0.231943101986E+01
 KINETIC ENERGY [hartree]     =          0.242403627818E+01   0.253960247372E+01
 TEMPERATURE [K]              =                     567.630              594.692
 *******************************************************************************

 FOBSH| Put former active state           4 in new active state           4
 RANDOM_NUMBER_HOPPING_PROBA  0.61314907403080898     
 FOBSH| ACTIVE STATE =            4

 ENERGY| Total FORCE_EVAL ( MIXED ) energy (a.u.):             2.458056843961299

 FOBSH| CASE1: no hop and no trivial crossing
 ENTER integrator.F
 STEP NUMBER                  =           25
 CPU TIME [s]                 =    7.1908639743924141E-002   9.1710916608571974E-002

 *******************************************************************************
 ENSEMBLE TYPE                =                                              NVE
 STEP NUMBER                  =                                               25
 TIME [fs]                    =                                         2.500000
 CONSERVED QUANTITY [hartree] =                               0.485919207493E+01

                                              INSTANTANEOUS             AVERAGES
 CPU TIME [s]                 =                        0.07                 0.09
 ENERGY DRIFT PER ATOM [K]    =          0.304164114899E-01  -0.226754590552E-01
 POTENTIAL ENERGY[hartree]    =          0.245805684396E+01   0.232497605282E+01
 KINETIC ENERGY [hartree]     =          0.240113523097E+01   0.253406378401E+01
 TEMPERATURE [K]              =                     562.267              593.395
 *******************************************************************************

 FOBSH| Put former active state           4 in new active state           4
 RANDOM_NUMBER_HOPPING_PROBA  0.74387583549278180     
 FOBSH| ACTIVE STATE =            4

 ENERGY| Total FORCE_EVAL ( MIXED ) energy (a.u.):             2.480550421289759

 FOBSH| CASE1: no hop and no trivial crossing
 ENTER integrator.F
 STEP NUMBER                  =           26
 CPU TIME [s]                 =   0.11467888765037060        9.2594300110179620E-002

 *******************************************************************************
 ENSEMBLE TYPE                =                                              NVE
 STEP NUMBER                  =                                               26
 TIME [fs]                    =                                         2.600000
 CONSERVED QUANTITY [hartree] =                               0.485921460744E+01

                                              INSTANTANEOUS             AVERAGES
 CPU TIME [s]                 =                        0.11                 0.09
 ENERGY DRIFT PER ATOM [K]    =          0.383221821256E-01  -0.203293959329E-01
 POTENTIAL ENERGY[hartree]    =          0.248055042129E+01   0.233095968238E+01
 KINETIC ENERGY [hartree]     =          0.237866418615E+01   0.252808687640E+01
 TEMPERATURE [K]              =                     557.005              591.995
 *******************************************************************************

 FOBSH| Put former active state           4 in new active state           4
 RANDOM_NUMBER_HOPPING_PROBA  0.51449155877675967     
 FOBSH| ACTIVE STATE =            4

 ENERGY| Total FORCE_EVAL ( MIXED ) energy (a.u.):             2.502249548902410

 FOBSH| CASE1: no hop and no trivial crossing
 ENTER integrator.F
 STEP NUMBER                  =           27
 CPU TIME [s]                 =    7.9519769176840782E-002   9.2110058223759658E-002

 *******************************************************************************
 ENSEMBLE TYPE                =                                              NVE
 STEP NUMBER                  =                                               27
 TIME [fs]                    =                                         2.700000
 CONSERVED QUANTITY [hartree] =                               0.485923649066E+01

                                              INSTANTANEOUS             AVERAGES
 CPU TIME [s]                 =                        0.08                 0.09
 ENERGY DRIFT PER ATOM [K]    =          0.460001433491E-01  -0.178727463298E-01
 POTENTIAL ENERGY[hartree]    =          0.250224954890E+01   0.233730375151E+01
 KINETIC ENERGY [hartree]     =          0.235698694175E+01   0.252174984178E+01
 TEMPERATURE [K]              =                     551.929              590.511
 *******************************************************************************

 FOBSH| Put former active state           4 in new active state           4
 RANDOM_NUMBER_HOPPING_PROBA  0.17176330176339644     
 FOBSH| ACTIVE STATE =            4

 ENERGY| Total FORCE_EVAL ( MIXED ) energy (a.u.):             2.522800548132420

 FOBSH| CASE1: no hop and no trivial crossing
 ENTER integrator.F
 STEP NUMBER                  =           28
 CPU TIME [s]                 =    6.3426032662391663E-002   9.1085628739425079E-002

 *******************************************************************************
 ENSEMBLE TYPE                =                                              NVE
 STEP NUMBER                  =                                               28
 TIME [fs]                    =                                         2.800000
 CONSERVED QUANTITY [hartree] =                               0.485925742301E+01

                                              INSTANTANEOUS             AVERAGES
 CPU TIME [s]                 =                        0.06                 0.09
 ENERGY DRIFT PER ATOM [K]    =          0.533444859797E-01  -0.153292737473E-01
 POTENTIAL ENERGY[hartree]    =          0.252280054813E+01   0.234392863710E+01
 KINETIC ENERGY [hartree]     =          0.233645687488E+01   0.251513223582E+01
 TEMPERATURE [K]              =                     547.122              588.962
 *******************************************************************************

 FOBSH| Put former active state           4 in new active state           4
 RANDOM_NUMBER_HOPPING_PROBA  0.49148359434413441     
 FOBSH| ACTIVE STATE =            4

 ENERGY| Total FORCE_EVAL ( MIXED ) energy (a.u.):             2.541864985328807

 FOBSH| CASE1: no hop and no trivial crossing
 ENTER integrator.F
 STEP NUMBER                  =           29
 CPU TIME [s]                 =    6.0095842927694321E-002   9.0017015435572292E-002

 *******************************************************************************
 ENSEMBLE TYPE                =                                              NVE
 STEP NUMBER                  =                                               29
 TIME [fs]                    =                                         2.900000
 CONSERVED QUANTITY [hartree] =                               0.485927711727E+01

                                              INSTANTANEOUS             AVERAGES
 CPU TIME [s]                 =                        0.06                 0.09
 ENERGY DRIFT PER ATOM [K]    =          0.602544260567E-01  -0.127229392713E-01
 POTENTIAL ENERGY[hartree]    =          0.254186498533E+01   0.235075402842E+01
 KINETIC ENERGY [hartree]     =          0.231741213194E+01   0.250831430120E+01
 TEMPERATURE [K]              =                     542.662              587.365
 *******************************************************************************

 FOBSH| Put former active state           4 in new active state           4
 RANDOM_NUMBER_HOPPING_PROBA   1.0672103664790645E-002
 FOBSH| ACTIVE STATE =            4

 ENERGY| Total FORCE_EVAL ( MIXED ) energy (a.u.):             2.559124281367408

 FOBSH| CASE1: no hop and no trivial crossing
 ENTER integrator.F
 STEP NUMBER                  =           30
 CPU TIME [s]                 =    7.3942875489592552E-002   8.9481210770706310E-002

 *******************************************************************************
 ENSEMBLE TYPE                =                                              NVE
 STEP NUMBER                  =                                               30
 TIME [fs]                    =                                         3.000000
 CONSERVED QUANTITY [hartree] =                               0.485929531023E+01

                                              INSTANTANEOUS             AVERAGES
 CPU TIME [s]                 =                        0.07                 0.09
 ENERGY DRIFT PER ATOM [K]    =          0.666376233700E-01  -0.100775871833E-01
 POTENTIAL ENERGY[hartree]    =          0.255912428137E+01   0.235769970352E+01
 KINETIC ENERGY [hartree]     =          0.230017102887E+01   0.250137619212E+01
 TEMPERATURE [K]              =                     538.625              585.741
 *******************************************************************************

 FOBSH| Put former active state           4 in new active state           4
 RANDOM_NUMBER_HOPPING_PROBA  0.66487806180832842     
 FOBSH| ACTIVE STATE =            4

 ENERGY| Total FORCE_EVAL ( MIXED ) energy (a.u.):             2.574283998957212

 FOBSH| CASE1: no hop and no trivial crossing
 ENTER integrator.F
 STEP NUMBER                  =           31
 CPU TIME [s]                 =    7.3132278397679329E-002   8.8953825855447366E-002

 *******************************************************************************
 ENSEMBLE TYPE                =                                              NVE
 STEP NUMBER                  =                                               31
 TIME [fs]                    =                                         3.100000
 CONSERVED QUANTITY [hartree] =                               0.485931172798E+01

                                              INSTANTANEOUS             AVERAGES
 CPU TIME [s]                 =                        0.07                 0.09
 ENERGY DRIFT PER ATOM [K]    =          0.723979642667E-01  -0.741708552361E-02
 POTENTIAL ENERGY[hartree]    =          0.257428399896E+01   0.236468629369E+01
 KINETIC ENERGY [hartree]     =          0.228502772902E+01   0.249439720944E+01
 TEMPERATURE [K]              =                     535.079              584.106
 *******************************************************************************

 FOBSH| Put former active state           4 in new active state           4
 RANDOM_NUMBER_HOPPING_PROBA  0.35668735676234831     
 FOBSH| ACTIVE STATE =            4

 ENERGY| Total FORCE_EVAL ( MIXED ) energy (a.u.):             2.587077994594258

 FOBSH| CASE1: no hop and no trivial crossing
 ENTER integrator.F
 STEP NUMBER                  =           32
 CPU TIME [s]                 =    7.2246590629220009E-002   8.8431724754627766E-002

 *******************************************************************************
 ENSEMBLE TYPE                =                                              NVE
 STEP NUMBER                  =                                               32
 TIME [fs]                    =                                         3.200000
 CONSERVED QUANTITY [hartree] =                               0.485932615988E+01

                                              INSTANTANEOUS             AVERAGES
 CPU TIME [s]                 =                        0.07                 0.09
 ENERGY DRIFT PER ATOM [K]    =          0.774615510426E-01  -0.476462813092E-02
 POTENTIAL ENERGY[hartree]    =          0.258707799459E+01   0.237163603435E+01
 KINETIC ENERGY [hartree]     =          0.227224816528E+01   0.248745505181E+01
 TEMPERATURE [K]              =                     532.086              582.481
 *******************************************************************************

 FOBSH| Put former active state           4 in new active state           4
 RANDOM_NUMBER_HOPPING_PROBA  0.25602569204134495     
 FOBSH| ACTIVE STATE =            4

 ENERGY| Total FORCE_EVAL ( MIXED ) energy (a.u.):             2.597272000026599

 FOBSH| CASE1: no hop and no trivial crossing
 ENTER integrator.F
 STEP NUMBER                  =           33
 CPU TIME [s]                 =    5.7818919420242310E-002   8.7504063986919123E-002

 *******************************************************************************
 ENSEMBLE TYPE                =                                              NVE
 STEP NUMBER                  =                                               33
 TIME [fs]                    =                                         3.300000
 CONSERVED QUANTITY [hartree] =                               0.485933840427E+01

                                              INSTANTANEOUS             AVERAGES
 CPU TIME [s]                 =                        0.06                 0.09
 ENERGY DRIFT PER ATOM [K]    =          0.817576266294E-01  -0.214274162303E-02
 POTENTIAL ENERGY[hartree]    =          0.259727200003E+01   0.237847348785E+01
 KINETIC ENERGY [hartree]     =          0.226206640424E+01   0.248062509280E+01
 TEMPERATURE [K]              =                     529.702              580.881
 *******************************************************************************

 FOBSH| Put former active state           4 in new active state           4
 RANDOM_NUMBER_HOPPING_PROBA  0.31839316669520429     
 FOBSH| ACTIVE STATE =            4

 ENERGY| Total FORCE_EVAL ( MIXED ) energy (a.u.):             2.604666848051033

 FOBSH| CASE1: no hop and no trivial crossing
 ENTER integrator.F
 STEP NUMBER                  =           34
 CPU TIME [s]                 =    7.0577640086412430E-002   8.7006227989845392E-002

 *******************************************************************************
 ENSEMBLE TYPE                =                                              NVE
 STEP NUMBER                  =                                               34
 TIME [fs]                    =                                         3.400000
 CONSERVED QUANTITY [hartree] =                               0.485934827989E+01

                                              INSTANTANEOUS             AVERAGES
 CPU TIME [s]                 =                        0.07                 0.09
 ENERGY DRIFT PER ATOM [K]    =          0.852225954666E-01   0.426827114903E-03
 POTENTIAL ENERGY[hartree]    =          0.260466684805E+01   0.238512623374E+01
 KINETIC ENERGY [hartree]     =          0.225468143184E+01   0.247397969100E+01
 TEMPERATURE [K]              =                     527.973              579.325
 *******************************************************************************

 FOBSH| Put former active state           4 in new active state           4
 RANDOM_NUMBER_HOPPING_PROBA  0.30362964774364765     
 FOBSH| ACTIVE STATE =            4

 ENERGY| Total FORCE_EVAL ( MIXED ) energy (a.u.):             2.609101272895310

 FOBSH| CASE1: no hop and no trivial crossing
 ENTER integrator.F
 STEP NUMBER                  =           35
 CPU TIME [s]                 =    5.9499483555555344E-002   8.6220321006008530E-002

 *******************************************************************************
 ENSEMBLE TYPE                =                                              NVE
 STEP NUMBER                  =                                               35
 TIME [fs]                    =                                         3.500000
 CONSERVED QUANTITY [hartree] =                               0.485935564721E+01

                                              INSTANTANEOUS             AVERAGES
 CPU TIME [s]                 =                        0.06                 0.09
 ENERGY DRIFT PER ATOM [K]    =          0.878074980358E-01   0.292341771264E-02
 POTENTIAL ENERGY[hartree]    =          0.260910127290E+01   0.239152552057E+01
 KINETIC ENERGY [hartree]     =          0.225025437432E+01   0.246758753910E+01
 TEMPERATURE [K]              =                     526.936              577.828
 *******************************************************************************

 FOBSH| Put former active state           4 in new active state           4
 RANDOM_NUMBER_HOPPING_PROBA  0.48480552012090300     
 FOBSH| ACTIVE STATE =            4

 ENERGY| Total FORCE_EVAL ( MIXED ) energy (a.u.):             2.610454172509039

 FOBSH| CASE1: no hop and no trivial crossing
 ENTER integrator.F
 STEP NUMBER                  =           36
 CPU TIME [s]                 =    7.3120901361107826E-002   8.5856448238094615E-002

 *******************************************************************************
 ENSEMBLE TYPE                =                                              NVE
 STEP NUMBER                  =                                               36
 TIME [fs]                    =                                         3.600000
 CONSERVED QUANTITY [hartree] =                               0.485936040083E+01

                                              INSTANTANEOUS             AVERAGES
 CPU TIME [s]                 =                        0.07                 0.09
 ENERGY DRIFT PER ATOM [K]    =          0.894753549067E-01   0.532763819026E-02
 POTENTIAL ENERGY[hartree]    =          0.261045417251E+01   0.239760687202E+01
 KINETIC ENERGY [hartree]     =          0.224890622832E+01   0.246151305824E+01
 TEMPERATURE [K]              =                     526.620              576.406
 *******************************************************************************

 FOBSH| Put former active state           4 in new active state           4
 RANDOM_NUMBER_HOPPING_PROBA  0.59258053737151251     
 FOBSH| ACTIVE STATE =            4

 ENERGY| Total FORCE_EVAL ( MIXED ) energy (a.u.):             2.608646326564120

 FOBSH| CASE1: no hop and no trivial crossing
 ENTER integrator.F
 STEP NUMBER                  =           37
 CPU TIME [s]                 =    7.3960155248641968E-002   8.5534926805947251E-002

 *******************************************************************************
 ENSEMBLE TYPE                =                                              NVE
 STEP NUMBER                  =                                               37
 TIME [fs]                    =                                         3.700000
 CONSERVED QUANTITY [hartree] =                               0.485936245520E+01

                                              INSTANTANEOUS             AVERAGES
 CPU TIME [s]                 =                        0.07                 0.09
 ENERGY DRIFT PER ATOM [K]    =          0.901961549154E-01   0.762138188553E-02
 POTENTIAL ENERGY[hartree]    =          0.260864632656E+01   0.240331064106E+01
 KINETIC ENERGY [hartree]     =          0.225071612864E+01   0.245581584393E+01
 TEMPERATURE [K]              =                     527.044              575.072
 *******************************************************************************

 FOBSH| Put former active state           4 in new active state           4
 RANDOM_NUMBER_HOPPING_PROBA  0.82802406866778777     
 FOBSH| ACTIVE STATE =            4

 ENERGY| Total FORCE_EVAL ( MIXED ) energy (a.u.):             2.603641624929136

 FOBSH| CASE1: no hop and no trivial crossing
 ENTER integrator.F
 STEP NUMBER                  =           38
 CPU TIME [s]                 =    5.9742068871855736E-002   8.4856167386629058E-002

 *******************************************************************************
 ENSEMBLE TYPE                =                                              NVE
 STEP NUMBER                  =                                               38
 TIME [fs]                    =                                         3.800000
 CONSERVED QUANTITY [hartree] =                               0.485936179985E+01

                                              INSTANTANEOUS             AVERAGES
 CPU TIME [s]                 =                        0.06                 0.08
 ENERGY DRIFT PER ATOM [K]    =          0.899662163048E-01   0.978835121235E-02
 POTENTIAL ENERGY[hartree]    =          0.260364162493E+01   0.240858250905E+01
 KINETIC ENERGY [hartree]     =          0.225572017492E+01   0.245055016843E+01
 TEMPERATURE [K]              =                     528.216              573.839
 *******************************************************************************

 FOBSH| Put former active state           4 in new active state           4
 RANDOM_NUMBER_HOPPING_PROBA  0.75328018252790863     
 FOBSH| ACTIVE STATE =            4

 ENERGY| Total FORCE_EVAL ( MIXED ) energy (a.u.):             2.595447628409456

 FOBSH| CASE1: no hop and no trivial crossing
 ENTER integrator.F
 STEP NUMBER                  =           39
 CPU TIME [s]                 =    7.1615228429436684E-002   8.4516656131316426E-002

 *******************************************************************************
 ENSEMBLE TYPE                =                                              NVE
 STEP NUMBER                  =                                               39
 TIME [fs]                    =                                         3.900000
 CONSERVED QUANTITY [hartree] =                               0.485935841253E+01

                                              INSTANTANEOUS             AVERAGES
 CPU TIME [s]                 =                        0.07                 0.08
 ENERGY DRIFT PER ATOM [K]    =          0.887777403777E-01   0.118137201653E-01
 POTENTIAL ENERGY[hartree]    =          0.259544762841E+01   0.241337392237E+01
 KINETIC ENERGY [hartree]     =          0.226391078412E+01   0.244576454319E+01
 TEMPERATURE [K]              =                     530.134              572.718
 *******************************************************************************

 FOBSH| Put former active state           4 in new active state           4
 RANDOM_NUMBER_HOPPING_PROBA  0.66104059957350725     
 FOBSH| ACTIVE STATE =            4

 ENERGY| Total FORCE_EVAL ( MIXED ) energy (a.u.):             2.584115682831190

 FOBSH| CASE1: no hop and no trivial crossing
 ENTER integrator.F
 STEP NUMBER                  =           40
 CPU TIME [s]                 =    5.9009442105889320E-002   8.3878975780680765E-002

 *******************************************************************************
 ENSEMBLE TYPE                =                                              NVE
 STEP NUMBER                  =                                               40
 TIME [fs]                    =                                         4.000000
 CONSERVED QUANTITY [hartree] =                               0.485935233538E+01

                                              INSTANTANEOUS             AVERAGES
 CPU TIME [s]                 =                        0.06                 0.08
 ENERGY DRIFT PER ATOM [K]    =          0.866455077842E-01   0.136845148558E-01
 POTENTIAL ENERGY[hartree]    =          0.258411568283E+01   0.241764246638E+01
 KINETIC ENERGY [hartree]     =          0.227523665255E+01   0.244150134592E+01
 TEMPERATURE [K]              =                     532.786              571.720
 *******************************************************************************

 FOBSH| Put former active state           4 in new active state           4
 RANDOM_NUMBER_HOPPING_PROBA   2.5683806357493563E-002
 FOBSH| ACTIVE STATE =            4

 ENERGY| Total FORCE_EVAL ( MIXED ) energy (a.u.):             2.569740356242905

 FOBSH| CASE1: no hop and no trivial crossing
 ENTER integrator.F
 STEP NUMBER                  =           41
 CPU TIME [s]                 =    7.3071617633104324E-002   8.3615381679520373E-002

 *******************************************************************************
 ENSEMBLE TYPE                =                                              NVE
 STEP NUMBER                  =                                               41
 TIME [fs]                    =                                         4.100000
 CONSERVED QUANTITY [hartree] =                               0.485934363157E+01

                                              INSTANTANEOUS             AVERAGES
 CPU TIME [s]                 =                        0.07                 0.08
 ENERGY DRIFT PER ATOM [K]    =          0.835916802214E-01   0.153895676696E-01
 POTENTIAL ENERGY[hartree]    =          0.256974035624E+01   0.242135217101E+01
 KINETIC ENERGY [hartree]     =          0.228960327532E+01   0.243779651493E+01
 TEMPERATURE [K]              =                     536.150              570.852
 *******************************************************************************

 FOBSH| Put former active state           4 in new active state           4
 RANDOM_NUMBER_HOPPING_PROBA  0.90989130718107158     
 FOBSH| ACTIVE STATE =            4

 ENERGY| Total FORCE_EVAL ( MIXED ) energy (a.u.):             2.552458401566999

 FOBSH| CASE1: no hop and no trivial crossing
 ENTER integrator.F
 STEP NUMBER                  =           42
 CPU TIME [s]                 =    5.9620914980769157E-002   8.3044084853359623E-002

 *******************************************************************************
 ENSEMBLE TYPE                =                                              NVE
 STEP NUMBER                  =                                               42
 TIME [fs]                    =                                         4.200000
 CONSERVED QUANTITY [hartree] =                               0.485933240342E+01

                                              INSTANTANEOUS             AVERAGES
 CPU TIME [s]                 =                        0.06                 0.08
 ENERGY DRIFT PER ATOM [K]    =          0.796521649629E-01   0.169196295099E-01
 POTENTIAL ENERGY[hartree]    =          0.255245840157E+01   0.242447374793E+01
 KINETIC ENERGY [hartree]     =          0.230687400185E+01   0.243467931224E+01
 TEMPERATURE [K]              =                     540.195              570.122
 *******************************************************************************

 FOBSH| Put former active state           4 in new active state           4
 RANDOM_NUMBER_HOPPING_PROBA  0.23290914517014807     
 FOBSH| ACTIVE STATE =            4

 ENERGY| Total FORCE_EVAL ( MIXED ) energy (a.u.):             2.532447123896205

 FOBSH| CASE1: no hop and no trivial crossing
 ENTER integrator.F
 STEP NUMBER                  =           43
 CPU TIME [s]                 =    6.7521428689360619E-002   8.2683092849545684E-002

 *******************************************************************************
 ENSEMBLE TYPE                =                                              NVE
 STEP NUMBER                  =                                               43
 TIME [fs]                    =                                         4.300000
 CONSERVED QUANTITY [hartree] =                               0.485931878553E+01

                                              INSTANTANEOUS             AVERAGES
 CPU TIME [s]                 =                        0.07                 0.08
 ENERGY DRIFT PER ATOM [K]    =          0.748741817257E-01   0.182674097940E-01
 POTENTIAL ENERGY[hartree]    =          0.253244712390E+01   0.242698475667E+01
 KINETIC ENERGY [hartree]     =          0.232687166163E+01   0.243217215758E+01
 TEMPERATURE [K]              =                     544.877              569.535
 *******************************************************************************

 FOBSH| Put former active state           4 in new active state           4
 RANDOM_NUMBER_HOPPING_PROBA  0.32290045874270040     
 FOBSH| ACTIVE STATE =            4

 ENERGY| Total FORCE_EVAL ( MIXED ) energy (a.u.):             2.509922178802735

 FOBSH| CASE1: no hop and no trivial crossing
 ENTER integrator.F
 STEP NUMBER                  =           44
 CPU TIME [s]                 =    5.8274812996387482E-002   8.2128359216519356E-002

 *******************************************************************************
 ENSEMBLE TYPE                =                                              NVE
 STEP NUMBER                  =                                               44
 TIME [fs]                    =                                         4.400000
 CONSERVED QUANTITY [hartree] =                               0.485930294007E+01

                                              INSTANTANEOUS             AVERAGES
 CPU TIME [s]                 =                        0.06                 0.08
 ENERGY DRIFT PER ATOM [K]    =          0.693146319413E-01   0.194275739337E-01
 POTENTIAL ENERGY[hartree]    =          0.250992217880E+01   0.242886969809E+01
 KINETIC ENERGY [hartree]     =          0.234938076126E+01   0.243029053493E+01
 TEMPERATURE [K]              =                     550.148              569.095
 *******************************************************************************

 FOBSH| Put former active state           4 in new active state           4
 RANDOM_NUMBER_HOPPING_PROBA   9.7544926984548766E-002
 FOBSH| ACTIVE STATE =            4

 ENERGY| Total FORCE_EVAL ( MIXED ) energy (a.u.):             2.485134939342597

 FOBSH| CASE1: no hop and no trivial crossing
 ENTER integrator.F
 STEP NUMBER                  =           45
 CPU TIME [s]                 =    7.2283325716853142E-002   8.1909580694304554E-002

 *******************************************************************************
 ENSEMBLE TYPE                =                                              NVE
 STEP NUMBER                  =                                               45
 TIME [fs]                    =                                         4.500000
 CONSERVED QUANTITY [hartree] =                               0.485928505823E+01

                                              INSTANTANEOUS             AVERAGES
 CPU TIME [s]                 =                        0.07                 0.08
 ENERGY DRIFT PER ATOM [K]    =          0.630405959113E-01   0.203967521999E-01
 POTENTIAL ENERGY[hartree]    =          0.248513493934E+01   0.243012003678E+01
 KINETIC ENERGY [hartree]     =          0.237415011888E+01   0.242904297013E+01
 TEMPERATURE [K]              =                     555.948              568.803
 *******************************************************************************

 FOBSH| Put former active state           4 in new active state           4
 RANDOM_NUMBER_HOPPING_PROBA  0.71348210410314561     
 FOBSH| ACTIVE STATE =            4

 ENERGY| Total FORCE_EVAL ( MIXED ) energy (a.u.):             2.458369452190660

 FOBSH| CASE1: no hop and no trivial crossing
 ENTER integrator.F
 STEP NUMBER                  =           46
 CPU TIME [s]                 =    7.2921816259622574E-002   8.1714194510941904E-002

 *******************************************************************************
 ENSEMBLE TYPE                =                                              NVE
 STEP NUMBER                  =                                               46
 TIME [fs]                    =                                         4.600000
 CONSERVED QUANTITY [hartree] =                               0.485926537437E+01

                                              INSTANTANEOUS             AVERAGES
 CPU TIME [s]                 =                        0.07                 0.08
 ENERGY DRIFT PER ATOM [K]    =          0.561343034165E-01   0.211736554872E-01
 POTENTIAL ENERGY[hartree]    =          0.245836945219E+01   0.243073415451E+01
 KINETIC ENERGY [hartree]     =          0.240089592218E+01   0.242843107779E+01
 TEMPERATURE [K]              =                     562.211              568.659
 *******************************************************************************

 FOBSH| Put former active state           4 in new active state           4
 RANDOM_NUMBER_HOPPING_PROBA  0.23217762780677217     
 FOBSH| ACTIVE STATE =            4

 ENERGY| Total FORCE_EVAL ( MIXED ) energy (a.u.):             2.429938824098706

 FOBSH| CASE1: no hop and no trivial crossing
 ENTER integrator.F
 STEP NUMBER                  =           47
 CPU TIME [s]                 =    7.3147809132933617E-002   8.1531930992260873E-002

 *******************************************************************************
 ENSEMBLE TYPE                =                                              NVE
 STEP NUMBER                  =                                               47
 TIME [fs]                    =                                         4.700000
 CONSERVED QUANTITY [hartree] =                               0.485924412316E+01

                                              INSTANTANEOUS             AVERAGES
 CPU TIME [s]                 =                        0.07                 0.08
 ENERGY DRIFT PER ATOM [K]    =          0.486780881442E-01   0.217588561820E-01
 POTENTIAL ENERGY[hartree]    =          0.242993882410E+01   0.243071723258E+01
 KINETIC ENERGY [hartree]     =          0.242930529906E+01   0.242844967824E+01
 TEMPERATURE [K]              =                     568.864              568.664
 *******************************************************************************

 FOBSH| Put former active state           4 in new active state           4
 RANDOM_NUMBER_HOPPING_PROBA  0.86781090183757892     
 FOBSH| ACTIVE STATE =            4

 ENERGY| Total FORCE_EVAL ( MIXED ) energy (a.u.):             2.400181341762263

 FOBSH| CASE1: no hop and no trivial crossing
 ENTER integrator.F
 STEP NUMBER                  =           48
 CPU TIME [s]                 =    5.7618860155344009E-002   8.1033742016491772E-002

 *******************************************************************************
 ENSEMBLE TYPE                =                                              NVE
 STEP NUMBER                  =                                               48
 TIME [fs]                    =                                         4.800000
 CONSERVED QUANTITY [hartree] =                               0.485922157607E+01

                                              INSTANTANEOUS             AVERAGES
 CPU TIME [s]                 =                        0.06                 0.08
 ENERGY DRIFT PER ATOM [K]    =          0.407672025451E-01   0.221548633979E-01
 POTENTIAL ENERGY[hartree]    =          0.240018134176E+01   0.243008106819E+01
 KINETIC ENERGY [hartree]     =          0.245904023431E+01   0.242908698149E+01
 TEMPERATURE [K]              =                     575.827              568.813
 *******************************************************************************

 FOBSH| Put former active state           4 in new active state           4
 RANDOM_NUMBER_HOPPING_PROBA  0.83009603751357086     
 FOBSH| ACTIVE STATE =            4

 ENERGY| Total FORCE_EVAL ( MIXED ) energy (a.u.):             2.369456267183118

 FOBSH| CASE1: no hop and no trivial crossing
 ENTER integrator.F
 STEP NUMBER                  =           49
 CPU TIME [s]                 =    7.2310002520680428E-002   8.0855706516577253E-002

 *******************************************************************************
 ENSEMBLE TYPE                =                                              NVE
 STEP NUMBER                  =                                               49
 TIME [fs]                    =                                         4.900000
 CONSERVED QUANTITY [hartree] =                               0.485919801321E+01

                                              INSTANTANEOUS             AVERAGES
 CPU TIME [s]                 =                        0.07                 0.08
 ENERGY DRIFT PER ATOM [K]    =          0.324999186128E-01   0.223659869737E-01
 POTENTIAL ENERGY[hartree]    =          0.236945626718E+01   0.242884382735E+01
 KINETIC ENERGY [hartree]     =          0.248974174603E+01   0.243032483383E+01
 TEMPERATURE [K]              =                     583.016              569.103
 *******************************************************************************

 FOBSH| Put former active state           4 in new active state           4
 RANDOM_NUMBER_HOPPING_PROBA  0.47303222757547708     
 FOBSH| ACTIVE STATE =            4

 ENERGY| Total FORCE_EVAL ( MIXED ) energy (a.u.):             2.338139314506578

 FOBSH| CASE1: no hop and no trivial crossing
 ENTER integrator.F
 STEP NUMBER                  =           50
 CPU TIME [s]                 =    5.8680575340986252E-002   8.0412203893065443E-002

 *******************************************************************************
 ENSEMBLE TYPE                =                                              NVE
[...]
 KINETIC ENERGY [hartree]     =          0.237497669919E+01   0.246733023663E+01
 TEMPERATURE [K]              =                     556.142              577.768
 *******************************************************************************

 FOBSH| Put former active state           1 in new active state           1
 RANDOM_NUMBER_HOPPING_PROBA  0.21348813534843089     
 FOBSH| ACTIVE STATE =            1

 ENERGY| Total FORCE_EVAL ( MIXED ) energy (a.u.):             2.515066497018628

 FOBSH| CASE1: no hop and no trivial crossing
 ENTER integrator.F
 STEP NUMBER                  =          191
 CPU TIME [s]                 =    3.7939930334687233E-002   7.3664228553781311E-002

 *******************************************************************************
 ENSEMBLE TYPE                =                                              NVE
 STEP NUMBER                  =                                              191
 TIME [fs]                    =                                        19.100000
 CONSERVED QUANTITY [hartree] =                               0.485919813012E+01

                                              INSTANTANEOUS             AVERAGES
 CPU TIME [s]                 =                        0.04                 0.07
 ENERGY DRIFT PER ATOM [K]    =          0.325409388115E-01   0.149342197504E-01
 POTENTIAL ENERGY[hartree]    =          0.251506649702E+01   0.239246261054E+01
 KINETIC ENERGY [hartree]     =          0.234413163310E+01   0.246668521776E+01
 TEMPERATURE [K]              =                     548.919              577.617
 *******************************************************************************

 FOBSH| Put former active state           1 in new active state           1
 RANDOM_NUMBER_HOPPING_PROBA  0.48895218309528526     
 FOBSH| ACTIVE STATE =            1

 ENERGY| Total FORCE_EVAL ( MIXED ) energy (a.u.):             2.545444138355379

 FOBSH| CASE1: no hop and no trivial crossing
 ENTER integrator.F
 STEP NUMBER                  =          192
 CPU TIME [s]                 =    5.4589461535215378E-002   7.3564880808892938E-002

 *******************************************************************************
 ENSEMBLE TYPE                =                                              NVE
 STEP NUMBER                  =                                              192
 TIME [fs]                    =                                        19.200000
 CONSERVED QUANTITY [hartree] =                               0.485922207940E+01

                                              INSTANTANEOUS             AVERAGES
 CPU TIME [s]                 =                        0.05                 0.07
 ENERGY DRIFT PER ATOM [K]    =          0.409438014781E-01   0.150696863219E-01
 POTENTIAL ENERGY[hartree]    =          0.254544413836E+01   0.239325938934E+01
 KINETIC ENERGY [hartree]     =          0.231377794105E+01   0.246588882569E+01
 TEMPERATURE [K]              =                     541.811              577.431
 *******************************************************************************

 FOBSH| Put former active state           1 in new active state           1
 RANDOM_NUMBER_HOPPING_PROBA   9.6361635495727002E-002
 FOBSH| ACTIVE STATE =            1

 ENERGY| Total FORCE_EVAL ( MIXED ) energy (a.u.):             2.574951590281249

 FOBSH| CASE1: no hop and no trivial crossing
 ENTER integrator.F
 STEP NUMBER                  =          193
 CPU TIME [s]                 =    5.0655758008360863E-002   7.3446180690755467E-002

 *******************************************************************************
 ENSEMBLE TYPE                =                                              NVE
 STEP NUMBER                  =                                              193
 TIME [fs]                    =                                        19.300000
 CONSERVED QUANTITY [hartree] =                               0.485924548914E+01

                                              INSTANTANEOUS             AVERAGES
 CPU TIME [s]                 =                        0.05                 0.07
 ENERGY DRIFT PER ATOM [K]    =          0.491573582354E-01   0.152463063837E-01
 POTENTIAL ENERGY[hartree]    =          0.257495159028E+01   0.239420079970E+01
 KINETIC ENERGY [hartree]     =          0.228429389886E+01   0.246494791934E+01
 TEMPERATURE [K]              =                     534.907              577.210
 *******************************************************************************

 FOBSH| Put former active state           1 in new active state           1
 RANDOM_NUMBER_HOPPING_PROBA  0.48564136564112370     
 FOBSH| ACTIVE STATE =            1

 ENERGY| Total FORCE_EVAL ( MIXED ) energy (a.u.):             2.603218824720411

 FOBSH| CASE1: no hop and no trivial crossing
 ENTER integrator.F
 STEP NUMBER                  =          194
 CPU TIME [s]                 =    5.0978707149624825E-002   7.3330368971471285E-002

 *******************************************************************************
 ENSEMBLE TYPE                =                                              NVE
 STEP NUMBER                  =                                              194
 TIME [fs]                    =                                        19.400000
 CONSERVED QUANTITY [hartree] =                               0.485926806259E+01

                                              INSTANTANEOUS             AVERAGES
 CPU TIME [s]                 =                        0.05                 0.07
 ENERGY DRIFT PER ATOM [K]    =          0.570774955349E-01   0.154619310700E-01
 POTENTIAL ENERGY[hartree]    =          0.260321882472E+01   0.239527821220E+01
 KINETIC ENERGY [hartree]     =          0.225604923787E+01   0.246387112201E+01
 TEMPERATURE [K]              =                     528.293              576.958
 *******************************************************************************

 FOBSH| Put former active state           1 in new active state           1
 RANDOM_NUMBER_HOPPING_PROBA  0.47719268623182526     
 FOBSH| ACTIVE STATE =            1

 ENERGY| Total FORCE_EVAL ( MIXED ) energy (a.u.):             2.629889026451171

 FOBSH| CASE1: no hop and no trivial crossing
 ENTER integrator.F
 STEP NUMBER                  =          195
 CPU TIME [s]                 =    3.0658947303891182E-002   7.3111541168047800E-002

 *******************************************************************************
 ENSEMBLE TYPE                =                                              NVE
 STEP NUMBER                  =                                              195
 TIME [fs]                    =                                        19.500000
 CONSERVED QUANTITY [hartree] =                               0.485928952793E+01

                                              INSTANTANEOUS             AVERAGES
 CPU TIME [s]                 =                        0.03                 0.07
 ENERGY DRIFT PER ATOM [K]    =          0.646088407318E-01   0.157139665042E-01
 POTENTIAL ENERGY[hartree]    =          0.262988902645E+01   0.239648134458E+01
 KINETIC ENERGY [hartree]     =          0.222940050148E+01   0.246266870857E+01
 TEMPERATURE [K]              =                     522.053              576.677
 *******************************************************************************

 FOBSH| Put former active state           1 in new active state           1
 RANDOM_NUMBER_HOPPING_PROBA  0.28885052192046046     
 FOBSH| ACTIVE STATE =            1

 ENERGY| Total FORCE_EVAL ( MIXED ) energy (a.u.):             2.654623037451387

 FOBSH| CASE1: no hop and no trivial crossing
 ENTER integrator.F
 STEP NUMBER                  =          196
 CPU TIME [s]                 =    2.4493264034390450E-002   7.2863488733692403E-002

 *******************************************************************************
 ENSEMBLE TYPE                =                                              NVE
 STEP NUMBER                  =                                              196
 TIME [fs]                    =                                        19.600000
 CONSERVED QUANTITY [hartree] =                               0.485930960429E+01

                                              INSTANTANEOUS             AVERAGES
 CPU TIME [s]                 =                        0.02                 0.07
 ENERGY DRIFT PER ATOM [K]    =          0.716528475046E-01   0.159993689583E-01
 POTENTIAL ENERGY[hartree]    =          0.265462303745E+01   0.239779839404E+01
 KINETIC ENERGY [hartree]     =          0.220468656684E+01   0.246135247316E+01
 TEMPERATURE [K]              =                     516.266              576.368
 *******************************************************************************

 FOBSH| Put former active state           1 in new active state           1
 RANDOM_NUMBER_HOPPING_PROBA  0.50938566447054467     
 FOBSH| ACTIVE STATE =            1

 ENERGY| Total FORCE_EVAL ( MIXED ) energy (a.u.):             2.677103662464603

 FOBSH| CASE1: no hop and no trivial crossing
 ENTER integrator.F
 STEP NUMBER                  =          197
 CPU TIME [s]                 =    2.6735350489616394E-002   7.2629335747681850E-002

 *******************************************************************************
 ENSEMBLE TYPE                =                                              NVE
 STEP NUMBER                  =                                              197
 TIME [fs]                    =                                        19.700000
 CONSERVED QUANTITY [hartree] =                               0.485932805421E+01

                                              INSTANTANEOUS             AVERAGES
 CPU TIME [s]                 =                        0.03                 0.07
 ENERGY DRIFT PER ATOM [K]    =          0.781261974643E-01   0.163147335700E-01
 POTENTIAL ENERGY[hartree]    =          0.267710366246E+01   0.239921618728E+01
 KINETIC ENERGY [hartree]     =          0.218222439174E+01   0.245993557934E+01
 TEMPERATURE [K]              =                     511.006              576.037
 *******************************************************************************

 FOBSH| Put former active state           1 in new active state           1
 RANDOM_NUMBER_HOPPING_PROBA  0.25014461903601903     
 FOBSH| ACTIVE STATE =            1

 ENERGY| Total FORCE_EVAL ( MIXED ) energy (a.u.):             2.697039622952057

 FOBSH| CASE1: no hop and no trivial crossing
 ENTER integrator.F
 STEP NUMBER                  =          198
 CPU TIME [s]                 =    2.4835793301463127E-002   7.2387954220175701E-002

 *******************************************************************************
 ENSEMBLE TYPE                =                                              NVE
 STEP NUMBER                  =                                              198
 TIME [fs]                    =                                        19.800000
 CONSERVED QUANTITY [hartree] =                               0.485934463714E+01

                                              INSTANTANEOUS             AVERAGES
 CPU TIME [s]                 =                        0.02                 0.07
 ENERGY DRIFT PER ATOM [K]    =          0.839444960061E-01   0.166562980267E-01
 POTENTIAL ENERGY[hartree]    =          0.269703962295E+01   0.240072034604E+01
 KINETIC ENERGY [hartree]     =          0.216230501419E+01   0.245843239467E+01
 TEMPERATURE [K]              =                     506.341              575.685
 *******************************************************************************

 FOBSH| Put former active state           1 in new active state           1
 RANDOM_NUMBER_HOPPING_PROBA  0.69767775389295372     
 FOBSH| ACTIVE STATE =            1

 ENERGY| Total FORCE_EVAL ( MIXED ) energy (a.u.):             2.714169278123382

 FOBSH| CASE1: no hop and no trivial crossing
 ENTER integrator.F
 STEP NUMBER                  =          199
 CPU TIME [s]                 =    2.5359991937875748E-002   7.2151632801671681E-002

 *******************************************************************************
 ENSEMBLE TYPE                =                                              NVE
 STEP NUMBER                  =                                              199
 TIME [fs]                    =                                        19.900000
 CONSERVED QUANTITY [hartree] =                               0.485935915493E+01

                                              INSTANTANEOUS             AVERAGES
 CPU TIME [s]                 =                        0.03                 0.07
 ENERGY DRIFT PER ATOM [K]    =          0.890382195336E-01   0.170200262755E-01
 POTENTIAL ENERGY[hartree]    =          0.271416927812E+01   0.240229546631E+01
 KINETIC ENERGY [hartree]     =          0.214518987681E+01   0.245685831166E+01
 TEMPERATURE [K]              =                     502.333              575.316
 *******************************************************************************

 FOBSH| Put former active state           1 in new active state           1
 RANDOM_NUMBER_HOPPING_PROBA  0.30406427272720471     
 FOBSH| ACTIVE STATE =            1

 ENERGY| Total FORCE_EVAL ( MIXED ) energy (a.u.):             2.728263865459262

 FOBSH| CASE1: no hop and no trivial crossing
 ENTER integrator.F
 STEP NUMBER                  =          200
 CPU TIME [s]                 =    4.6149728819727898E-002   7.2021623281761968E-002

 *******************************************************************************
 ENSEMBLE TYPE                =                                              NVE
 STEP NUMBER                  =                                              200
 TIME [fs]                    =                                        20.000000
 CONSERVED QUANTITY [hartree] =                               0.485937142463E+01

                                              INSTANTANEOUS             AVERAGES
 CPU TIME [s]                 =                        0.05                 0.07
 ENERGY DRIFT PER ATOM [K]    =          0.933431764518E-01   0.174016420264E-01
 POTENTIAL ENERGY[hartree]    =          0.272826386546E+01   0.240392530830E+01
 KINETIC ENERGY [hartree]     =          0.213110755918E+01   0.245522955790E+01
 TEMPERATURE [K]              =                     499.036              574.935
 *******************************************************************************


 -------------------------------------------------------------------------------
 -                                                                             -
 -                                DBCSR STATISTICS                             -
 -                                                                             -
 -------------------------------------------------------------------------------
 COUNTER                                    TOTAL       BLAS       SMM       ACC
 flops total                                    0       0.0%      0.0%      0.0%
 flops max/rank                                 0       0.0%      0.0%      0.0%
 matmuls inhomo. stacks                         0       0.0%      0.0%      0.0%
 matmuls total                                  0       0.0%      0.0%      0.0%
 number of processed stacks                     0       0.0%      0.0%      0.0%
 average stack size                                     0.0       0.0       0.0
 marketing flops                     0.000000E+00
 -------------------------------------------------------------------------------

 MEMORY| Estimated peak process memory [MiB]                                 103

 -------------------------------------------------------------------------------
 -                                                                             -
 -                           R E F E R E N C E S                               -
 -                                                                             -
 -------------------------------------------------------------------------------
 
 CP2K version 4.0 (Development Version), the CP2K developers group (2015).
 CP2K is freely available from https://www.cp2k.org/ .

 Borstnik, U; VandeVondele, J; Weber, V; Hutter, J. 
 PARALLEL COMPUTING, 40 (5-6), 47-58 (2014). 
 Sparse matrix multiplication: The distributed block-compressed sparse
 row library.
 http://dx.doi.org/10.1016/j.parco.2014.03.012


 Hutter, J; Iannuzzi, M; Schiffmann, F; VandeVondele, J. 
 WILEY INTERDISCIPLINARY REVIEWS-COMPUTATIONAL MOLECULAR SCIENCE, 4 (1), 15-25 (2014). 
 CP2K: atomistic simulations of condensed matter systems.
 http://dx.doi.org/10.1002/wcms.1159


 Frigo, M; Johnson, SG. 
 PROCEEDINGS OF THE IEEE, 93 (2), 216-231 (2005). 
 The design and implementation of FFTW3.
 http://dx.doi.org/10.1109/JPROC.2004.840301


 -------------------------------------------------------------------------------
 -                                                                             -
 -                                T I M I N G                                  -
 -                                                                             -
 -------------------------------------------------------------------------------
 SUBROUTINE                       CALLS  ASD         SELF TIME        TOTAL TIME
                                MAXIMUM       AVERAGE  MAXIMUM  AVERAGE  MAXIMUM
 CP2K                                 1  1.0    0.032    0.032   24.717   24.717
 qs_mol_dyn_low                       1  2.0    0.078    0.078   14.512   14.512
 velocity_verlet                    200  3.0    1.717    1.717   12.164   12.164
 fist_calc_energy_force             410  4.0    0.087    0.087   10.852   10.852
 topology_control                     3  4.0    0.005    0.005    9.259    9.259
 connectivity_control                 3  5.0    0.019    0.019    8.924    8.924
 read_topology_psf                  150  6.0    3.838    3.838    8.897    8.897
 force_nonbond                      205  5.0    8.330    8.330    8.330    8.330
 fist_create_force_env                2  2.0    0.000    0.000    7.405    7.405
 fist_init                            2  3.0    0.002    0.002    7.405    7.405
 parser_read_line                 12762  7.2    0.256    0.256    5.860    5.860
 parser_read_line_low               171  7.9    5.602    5.602    5.604    5.604
 mixed_create_force_env               1  2.0    0.000    0.000    2.693    2.693
 mixed_init                           1  3.0    0.000    0.000    2.693    2.693
 md_output                          200  3.0    0.001    0.001    1.734    1.734
 md_write_output                    201  4.0    1.562    1.562    1.658    1.658
 force_intra_control                410  5.0    1.466    1.466    1.466    1.466
 list_control                       205  5.0    0.019    0.019    0.941    0.941
 build_fist_neighbor_lists            3  5.7    0.000    0.000    0.922    0.922
 force_field_control                  2  4.0    0.000    0.000    0.835    0.835
 read_force_field_charmm              2  5.0    0.147    0.147    0.831    0.831
 build_neighbor_lists                 3  6.7    0.776    0.776    0.793    0.793
 -------------------------------------------------------------------------------

 The number of warnings for this run is : 1
 
 -------------------------------------------------------------------------------
  **** **** ******  **  PROGRAM ENDED AT                 2021-04-29 14:23:54.898
 ***** ** ***  *** **   PROGRAM RAN ON                   bulstake.phys.ucl.ac.uk
 **    ****   ******    PROGRAM RAN BY                                 sgiannini
 ***** **    ** ** **   PROGRAM PROCESS ID                                 12993
  **** **  *******  **  PROGRAM STOPPED IN /scratch/sgiannini/REG_TEST_MERGING/3
                                           7-071a0540f1_code_extension_V3_ADJ/ru
                                           n-fssh-MTS1_FROZEN_C_FIRST_OFF
