     900
 i =        0, time =        0.000, E =         2.4458979370
  C        -1.0164896537        0.3373997195        2.5926957539
  C        -0.4181779642        1.2837650667        1.7625578429
  C         0.0917870182        0.8876661894        0.4976463047
  C         0.7285941313        1.8654929724       -0.3053805888
  C        -1.2942779590       -0.9807305602        2.0482742606
  H        -1.4224660356        0.5792542700        3.5731121867
  H        -0.4298426118        2.2470740492        2.0864593181
  H         1.0120921205        2.8923075657        0.1206982605
  H        -1.9136413879       -1.5316552929        2.6857457810
  C        -0.1971493933       -0.3916951102        0.0233567863
  C         1.1001692142        1.5760843725       -1.6071881638
  C        -0.8692022662       -1.2890390298        0.8174356575
  C         0.3334707300       -0.6721601231       -1.2876041852
  C         0.9772954460        0.2375222629       -2.0685853009
  H         1.6796868661        2.1378663131       -2.0474479076
  H        -1.3314089722       -2.2425978607        0.4470526312
  H         0.1724511787       -1.6992634950       -1.7216080428
  H         1.3126865753       -0.1234157854       -2.9616990175
  C         5.0044504495        3.2139067590       -2.3607838863
  C         4.2145486003        4.0445603726       -1.5650232155
  C         3.8265162697        3.6352021316       -0.2359389032
  C         2.9740186607        4.4570910223        0.4906663413
  C         5.4512994577        1.9895456224       -1.8076661659
  H         5.4334205020        3.5241020038       -3.2996025578
  H         3.9758875944        4.9709395238       -1.9746574366
  H         2.5409596109        5.3304841934        0.0772959639
  H         5.9779318222        1.4621058404       -2.3072493871
  C         4.2326551848        2.4398354340        0.3111629502
  C         2.6427751654        4.2473839901        1.8231209780
  C         5.0235333755        1.5592239514       -0.5085739271
  C         3.6195618345        2.0591341053        1.5676096150
  C         2.9032679172        2.9722014165        2.3949197486
  H         1.9963087456        4.8643104151        2.3872760923
  H         5.3337305674        0.5918340318       -0.2487025279
  H         3.7882017272        1.1350420214        2.0294453658
  H         2.5589437570        2.7722562697        3.3159030595
  C        -1.5520316243        6.4510761461        2.6833423472
  C        -0.7573434562        7.2512797775        1.8852689114
  C        -0.3190120214        6.7398150785        0.6012036433
  C         0.4859380311        7.5666470774       -0.2117697366
  C        -1.8043278708        5.0884248454        2.3061809748
  H        -1.9320947245        6.6604602058        3.7512465742
  H        -0.5625970769        8.1517851111        2.2110466353
  H         0.8066661284        8.4803174508        0.1446067295
  H        -2.3556210557        4.5511005450        3.0957074254
  C        -0.6344541076        5.4441926988        0.2221093621
  C         0.8137798464        7.1665007304       -1.4949261037
  C        -1.3582474616        4.6129635450        1.0643838414
  C        -0.3275050397        5.0195293140       -1.1128109845
  C         0.3358048185        5.9254917511       -1.9521379525
  H         1.2236911431        7.7581175525       -2.1530346600
  H        -1.5916348749        3.7245595904        0.8542134308
  H        -0.5839511547        4.1099688170       -1.4289593726
  H         0.6012696014        5.6074259446       -2.9445246671
  C         4.9150917537        9.0447682677       -2.1437906458
  C         4.2644918725        9.9732409790       -1.3177753007
  C         3.7425550151        9.5121233137       -0.0504644630
  C         3.0679749367       10.3515941886        0.8814066113
  C         5.1810812893        7.7740791019       -1.7732772998
  H         5.4045619473        9.1819149340       -3.0558554597
  H         4.0169875453       10.9765207430       -1.5645597432
  H         2.8337062900       11.2830860177        0.4193300332
  H         5.6126703733        7.1947420300       -2.4799756266
  C         3.9899733975        8.2383482231        0.3713511812
  C         2.6423945085        9.8468414671        2.0959979261
  C         4.6720742096        7.3002615935       -0.4800941123
  C         3.6053314128        7.7315982056        1.6070943598
  C         2.9099257916        8.5859497013        2.4833397338
  H         2.1192612206       10.4650925717        2.7247133214
  H         4.8195175375        6.2464171715       -0.1141860631
  H         4.0124732028        6.7345250305        1.8634581058
  H         2.6257508334        8.2020718987        3.3686524873
  C        -1.0814955457       12.2841869036        2.5786424677
  C        -0.2907510142       12.9439505582        1.6756370820
  C        -0.0199415181       12.4022655874        0.3811286174
  C         0.6904845719       13.2189955251       -0.5346985584
  C        -1.5732796133       11.0238021019        2.2567720191
  H        -1.2998616215       12.7453335998        3.5310332783
  H         0.0570634635       13.9398566222        1.8893828816
  H         0.9731750061       14.1657847203       -0.4034805338
  H        -2.1980594089       10.5719974913        2.8992516657
  C        -0.4679769101       11.1267700323        0.0023637382
  C         0.8485324931       12.7750165599       -1.8425380832
  C        -1.2659256725       10.4741980305        1.0216746610
  C        -0.1798589311       10.6548414463       -1.2840923481
  C         0.4505067328       11.4544023788       -2.2456436814
  H         1.3615895409       13.2786616515       -2.6867996708
  H        -1.6606267652        9.5899271618        0.7073349336
  H        -0.4072465170        9.7636218027       -1.5725973688
  H         0.6958383033       11.2317531359       -3.2805163288
  C         4.8603825433       14.6452003995       -2.0602448209
  C         4.0081675427       15.5430526175       -1.4341807054
  C         3.6908124436       15.3040820526       -0.0139328520
  C         2.8740007358       16.2012604590        0.7570505503
  C         5.4166831648       13.5529186670       -1.4112468466
  H         5.3119022642       14.8353894421       -3.0444794156
  H         3.6294401320       16.4210986943       -1.7617742816
  H         2.4728003726       17.1388765799        0.3869095667
  H         6.1104807145       12.9796634337       -1.8953959883
  C         4.1633360267       14.1397483120        0.6140230213
  C         2.6131712452       15.8988824448        2.1080246225
  C         5.0730292953       13.2556353084       -0.0649862546
  C         3.8946501899       13.8173311913        1.9720020234
  C         3.0870167501       14.6693982918        2.6727390515
  H         2.1038075837       16.3763493721        2.8723905770
  H         5.5612564115       12.3904175128        0.4588143656
  H         4.3558889608       12.9818521201        2.3657194277
  H         2.7445174135       14.6298818413        3.7145746098
  C        -1.1146838333       17.8830491640        2.3611467513
  C        -0.4329715030       18.7856698078        1.6369134217
  C         0.1032686684       18.4739902382        0.3748496732
  C         0.7935894963       19.4393698684       -0.3950501177
  C        -1.3648533786       16.5846251833        1.8889401666
  H        -1.4791342799       18.1415232327        3.3280841550
  H        -0.0789507503       19.7073129150        1.9866883691
  H         1.1075002330       20.2929271125        0.1539871127
  H        -2.0669512055       15.9614870145        2.4365899216
  C        -0.2286194237       17.2866000612       -0.1974131374
  C         1.3522909062       19.1021198818       -1.6155971693
  C        -0.9699613118       16.2939637081        0.5552190628
  C         0.1573175883       16.9421270815       -1.5371756656
  C         1.0365634049       17.8425095872       -2.1947047623
  H         2.0241300850       19.6047084308       -2.1729189223
  H        -0.9542275661       15.2830088491        0.1039261319
  H         0.0510197253       16.0145403966       -1.9860103116
  H         1.4967075009       17.6863477881       -3.0946911152
  C         5.0395023770       20.5852287156       -2.1003912795
  C         4.3987901802       21.5101113642       -1.2764337915
  C         3.9950696473       21.0925636392        0.0253846190
  C         3.3961192588       22.0067349800        0.9131965635
  C         5.1968701113       19.2853938326       -1.6912536776
  H         5.4836747959       20.9729970424       -3.0443581164
  H         4.3930880705       22.4611657993       -1.4611717321
  H         3.2497645447       22.9762298054        0.6812790338
  H         5.7677584290       18.6271254933       -2.2675329386
  C         4.1553794316       19.7308416163        0.3965116118
  C         2.9165187228       21.5661940869        2.1500539671
  C         4.7516020194       18.7871624266       -0.4820156440
  C         3.6714618625       19.2847594184        1.6263201396
  C         3.0301430822       20.1662327299        2.5334749218
  H         2.3969485779       22.1289443342        2.9120002329
  H         5.1030521908       17.8029124869       -0.1304498518
  H         3.7480249249       18.3005099808        2.0085076675
  H         2.5973093933       19.8557843442        3.4473034255
  C        -0.3401851170       23.7344885700        2.6026490186
  C         0.2478479386       24.7609537792        1.7954116615
  C         0.5383243441       24.4635900619        0.4205031250
  C         1.0955227790       25.4229962925       -0.4656020269
  C        -0.7492558439       22.5445509875        2.0869578008
  H        -0.5841876978       23.9247000271        3.6866774990
  H         0.3852115212       25.6523951436        2.2456469850
  H         1.3187608805       26.3896566436       -0.1478297367
  H        -1.3043333284       21.8040721996        2.7104588958
  C         0.1718826332       23.2098313497       -0.1312393707
  C         1.5903896538       25.0499458152       -1.6468306724
  C        -0.5489608842       22.2903128037        0.7119842422
  C         0.5473359698       22.9292984956       -1.4827251803
  C         1.3448330634       23.7695649314       -2.2081357479
  H         2.1173599798       25.8298866165       -2.3528252281
  H        -0.8999466606       21.4904083940        0.3046636606
  H         0.4542070333       21.9550600892       -1.7875079442
  H         1.8240123130       23.5021834125       -3.2929355073
  C         5.1550648319       27.0876768469       -1.8745915900
  C         4.3400819096       27.9652954504       -1.2000862734
  C         3.8211703627       27.5066286383        0.0598126056
  C         3.1237946196       28.3614074963        0.8605865564
  C         5.4588028571       25.8541550768       -1.4710475779
  H         5.6422113876       27.4429200280       -2.9080356254
  H         4.0306534352       28.9058095159       -1.4940094356
  H         2.9296824673       29.2871965532        0.5705527183
  H         5.9795135198       25.2474494480       -2.0669859867
  C         4.1416546615       26.2486336849        0.5425199406
  C         2.7797108621       28.0416558139        2.1665683918
  C         4.9106609935       25.3600578080       -0.2953830793
  C         3.7902921051       25.8284004435        1.8683706130
  C         3.1308223861       26.7543468080        2.6478564859
  H         2.3263474182       28.7360209263        2.9412367091
  H         5.1465502953       24.4907875231        0.0684624993
  H         4.1080501145       24.9764271387        2.2785285966
  H         3.0026853841       26.4815374867        3.7874481464
  C         6.9271908468        0.2358146260        2.5582101029
  C         7.5842645320        1.1708097682        1.7201385523
  C         8.0485611024        0.7237233855        0.4718336394
  C         8.7826742848        1.6408388468       -0.3399371675
  C         6.6936083747       -1.1107059027        2.1722057088
  H         6.5601989413        0.5710988373        3.4542584110
  H         7.7508363405        2.1555160685        1.9610439658
  H         8.9101877120        2.6360591244       -0.0065413147
  H         6.2175829257       -1.6501156447        2.8415674612
  C         7.7924358038       -0.6021477232        0.0006683583
  C         9.2765597413        1.2617759433       -1.6029401870
  C         7.1106258634       -1.4814281891        0.8830487126
  C         8.2685648320       -0.8988565919       -1.2754954193
  C         8.9312134055        0.0132161750       -2.0367591079
  H         9.6960127640        1.9723188194       -2.2266266486
  H         6.8179529443       -2.3695075531        0.5715739722
  H         7.9133357436       -1.8163563049       -1.6632354412
  H         9.0961539715       -0.1800925154       -3.0473640663
  C        13.0915361643        3.1664022470       -2.1656375284
  C        12.3645332407        4.0008980778       -1.3526820171
  C        11.8660700860        3.5908329219       -0.0342870240
  C        11.0400432564        4.4637203535        0.7490269926
  C        13.2814111937        1.8570649376       -1.6763856130
  H        13.3074014971        3.4028866793       -3.1528147181
  H        12.1180898914        4.9258591215       -1.7600413063
  H        10.8508016011        5.4441266326        0.5231896009
  H        13.7694495686        1.0377752264       -2.1899670717
  C        12.0313658216        2.2712707510        0.3976323914
  C        10.6093192738        4.1231271339        2.0002452970
  C        12.8388511242        1.4161686213       -0.4802579549
  C        11.5150133935        1.9087257750        1.6268286592
  C        10.8620362759        2.7679514001        2.5189113799
  H        10.0334020428        4.7975496482        2.6690809930
  H        13.0067483443        0.3813306346       -0.1888008092
  H        11.5773200406        1.0037413324        2.0699629212
  H        10.5254416702        2.4410501446        3.5056720150
  C         7.0589185045        6.1261204427        2.6893713845
  C         7.7242411142        7.0131581150        1.8244481539
  C         8.0943846349        6.5624322552        0.5436815521
  C         8.9534781278        7.3383873310       -0.3121996394
  C         6.6828075586        4.8257717608        2.2565572946
  H         6.7741458233        6.4983107003        3.5611941672
  H         7.9032392248        7.9197634739        2.1250809450
  H         9.2582010828        8.2601813136        0.0397503701
  H         6.1289350659        4.2314865246        2.8898914694
  C         7.7105893749        5.2679731192        0.0759894186
  C         9.1654945404        6.9419614277       -1.6415737874
  C         6.9486652272        4.4413834292        0.9355280346
  C         8.1082056833        4.8162207165       -1.2377041334
  C         8.7276460465        5.7043442747       -2.0849821975
  H         9.5390516577        7.5763712597       -2.4088483544
  H         6.6461080479        3.6041919605        0.5679321489
  H         7.6702861175        3.9557967553       -1.5375606122
  H         8.9246159874        5.5765570353       -3.1552599596
  C        13.0763465833        9.0275867647       -2.1819395239
  C        12.3153510013        9.8784750001       -1.4027688983
  C        12.0010475801        9.4980247292       -0.0756913889
  C        11.3825068180       10.4349690237        0.7774622804
  C        13.3858279009        7.7179081576       -1.7595477669
  H        13.2555841563        9.4583375634       -3.1625861568
  H        11.8790026876       10.7716843380       -1.7501702773
  H        11.1966351088       11.4101839575        0.5341449431
  H        13.8705315192        7.0348068251       -2.3450669161
  C        12.3005085659        8.2338075668        0.3803378498
  C        10.9461232397       10.0191069171        2.0850614884
  C        12.8950062631        7.3057807198       -0.5099011393
  C        11.9649208941        7.8482358872        1.7232100233
  C        11.2722220110        8.7110482301        2.4966201444
  H        10.5383510533       10.6532391542        2.9251613849
  H        13.0738978267        6.3738081250       -0.1521620054
  H        12.2155429254        7.0252471285        2.1417844088
  H        11.0152033424        8.5093450344        3.6080027485
  C         7.3348019990       11.9034179260        2.4888908940
  C         8.0443266552       12.7888641190        1.6694652439
  C         8.4398405686       12.2878091591        0.3743486790
  C         9.1570739482       13.1408498544       -0.4817092781
  C         6.9089806663       10.6448047132        2.0250138710
  H         6.9417110198       12.0957735592        3.4939603329
  H         8.3404815120       13.7795341316        1.9295962084
  H         9.4304436656       14.1575028535       -0.1234172892
  H         6.3945522514       10.1148422749        2.7133161838
  C         8.0928270947       10.9819179967       -0.0521000286
  C         9.4785297109       12.7026470065       -1.7722754661
  C         7.1897751068       10.1953455046        0.7779555706
  C         8.4620596387       10.4826451029       -1.3641833280
  C         9.1475774095       11.3994756490       -2.2347528270
  H         9.9167866273       13.3100943142       -2.4279466762
  H         6.8509599955        9.3123606292        0.3013514097
  H         8.0832458610        9.6366986382       -1.7401538989
  H         9.5339118849       11.2191425543       -3.1934302528
  C        13.2848945517       14.9086611325       -2.1885440061
  C        12.5234217459       15.7856456729       -1.4865815863
  C        12.1606902717       15.4625910457       -0.1287796200
  C        11.3511721569       16.3721876502        0.5907793453
  C        13.7151229747       13.6665641952       -1.6115115932
  H        13.6418739024       14.9674452301       -3.1070628792
  H        12.3069938169       16.6817537647       -1.8381956137
  H        11.0694899288       17.2667072813        0.0807304062
  H        14.2807302173       13.1189247300       -2.2923898081
  C        12.5077694359       14.2692922091        0.4300785263
  C        10.8394585369       16.0247128865        1.7944864260
  C        13.3358970845       13.3547073839       -0.2991914280
  C        12.1129413442       13.9290336825        1.7369039151
  C        11.1769006292       14.7576966585        2.3592027381
  H        10.2119532263       16.6266327000        2.3931802338
  H        13.5127046724       12.3979291584        0.0683571913
  H        12.3426093257       13.0612956685        2.2550326152
  H        10.8176585334       14.4853729049        3.3207039030
  C         7.1031519090       18.0570941512        2.3803765521
  C         7.8219048430       18.9666792978        1.5848418028
  C         8.2337951959       18.5781757667        0.3114665927
  C         9.0157653488       19.4669676430       -0.4920370561
  C         6.7822788480       16.7524807757        1.9050831538
  H         6.6580551781       18.4006987453        3.3783278348
  H         8.0024087807       19.8664828476        2.0101630828
  H         9.2360688386       20.5194160054       -0.1875329328
  H         6.2583945427       16.1253164105        2.6219434942
  C         8.0123048721       17.2541841976       -0.1524131247
  C         9.4663488319       19.0655089343       -1.6748755996
  C         7.2502241952       16.3356606020        0.6508568416
  C         8.4718681073       16.9077505668       -1.5016116071
  C         9.1906797680       17.8131671776       -2.1964143899
  H        10.0097207151       19.7979389688       -2.1866362832
  H         6.8509868595       15.3758928540        0.3092030138
  H         8.2023903456       15.9401654755       -1.8454960429
  H         9.7357158127       17.3799323180       -3.0683606188
  C        13.2099631381       20.9913944148       -2.0678969102
  C        12.3684253863       21.8246831203       -1.3864558157
  C        11.7551211864       21.3380566184       -0.1429863818
  C        10.9848776214       22.2167755630        0.6569173164
  C        13.5355891955       19.7735476564       -1.6343292390
  H        13.4738911001       21.2839634315       -3.0742888827
  H        12.1868872802       22.8045988612       -1.5096932521
  H        10.7078188265       23.1339836529        0.3348557546
  H        14.1049716348       19.1152788248       -2.1813700427
  C        12.1979226605       20.1584630633        0.3525992663
  C        10.5440665341       21.8053170917        1.9527520053
  C        13.0048257065       19.2988963167       -0.4538033106
  C        11.8516457002       19.7375909513        1.6450463936
  C        11.0573954221       20.6128527447        2.4515920096
  H         9.9588878510       22.3100238862        2.6158497900
  H        13.3458056224       18.3642098755        0.0024073885
  H        12.0994718838       18.8360618905        2.0856575530
  H        10.7512219627       20.3386975298        3.5255183128
  C         6.9748533664       23.8103582667        2.1348553590
  C         7.7373629677       24.6875259964        1.3853687653
  C         8.1237628211       24.3199073203        0.1224937215
  C         8.8991072928       25.2464696466       -0.6455494530
  C         6.6729631246       22.4155568514        1.6739284814
  H         6.6131059879       24.1074436976        3.1390349929
  H         8.1231003856       25.5339010332        1.8969962471
  H         9.0875606273       26.2332885458       -0.2696297719
  H         6.1166720809       21.8003392567        2.4085169390
  C         7.8910506476       23.0094076171       -0.3846039735
  C         9.4350530260       24.8444028528       -1.8903797493
  C         7.1679620126       22.0710814773        0.4454178590
  C         8.3800768122       22.6462371644       -1.7436371066
  C         9.1290694698       23.5807806433       -2.4019858181
  H        10.0198791610       25.5513191726       -2.4539219904
  H         6.8922966540       21.1092229927        0.1437170807
  H         8.2517092931       21.7213907629       -2.1104606732
  H         9.5550017957       23.1659407792       -3.2319090907
  C        12.7219967521       26.7791789983       -2.1581848701
  C        12.0168853454       27.6769136020       -1.4429877425
  C        11.7337335196       27.3802676860       -0.1021924177
  C        10.9461295125       28.3297503106        0.5877827555
  C        13.1209905268       25.5589166801       -1.5673639348
  H        12.6915004306       26.9741930467       -3.1609397901
  H        11.6142550390       28.5539804621       -1.9712084399
  H        10.3860889270       29.1478467255        0.2322053448
  H        13.6745566509       24.8477005679       -2.0575939366
  C        12.0817157285       26.1567307128        0.4875921988
  C        10.4927725855       28.0472481290        1.8727470298
  C        12.8390262726       25.2609604398       -0.2575690550
  C        11.5881810545       25.8272055155        1.7754759959
  C        10.8425278237       26.7510793580        2.4762102205
  H         9.7192292465       28.6624790750        2.3733856286
  H        13.1143456752       24.2472150646        0.1323781545
  H        11.8672262042       24.9001166397        2.3182778282
  H        10.4411477384       26.6330732857        3.4156686589
  C        15.2400101384        0.1896854605        2.3842826301
  C        15.9202478303        1.1403183134        1.5390740281
  C        16.1654481221        0.7546118117        0.1618350639
  C        16.9307728604        1.5923160547       -0.7127494759
  C        14.8301243894       -1.0319252282        1.9757108077
  H        14.9378901317        0.3779086148        3.4076462186
  H        16.1713527573        2.0025369544        1.9003753838
  H        17.3735435488        2.5016274184       -0.3159836236
  H        14.2995128019       -1.6731729812        2.6455453435
  C        15.7963084768       -0.5080330062       -0.2994538388
  C        17.2418095252        1.2281527954       -1.9691910789
  C        14.9838493322       -1.3908560222        0.5804558919
  C        16.2053016344       -0.8939401745       -1.6016670168
  C        16.8903072417       -0.0441065601       -2.4333060910
  H        17.8569672160        1.7891860850       -2.6052087633
  H        14.6983396701       -2.3064199761        0.2089749562
  H        16.0035970645       -1.8587496842       -1.8270226850
  H        17.4101346691       -0.2939276786       -3.4179306108
  C        20.9882846678        3.1910767570       -2.2784836179
  C        20.1580641289        3.9865459415       -1.5012132328
  C        19.8493880386        3.5149131261       -0.1719350572
  C        19.0972026957        4.3425661460        0.6509207222
  C        21.4080464397        1.9728060019       -1.8743138893
  H        21.5725685007        3.4931380109       -3.1012486606
  H        19.8732298607        4.9819018771       -1.7774692622
  H        18.7421029238        5.1823920548        0.3400331123
  H        21.9381581312        1.5129516938       -2.5721320031
  C        20.1954397346        2.2107107969        0.1935178625
  C        18.6777799566        3.8731345620        1.9037590863
  C        20.9879652217        1.4413071682       -0.6605955281
  C        19.8043291755        1.7131207618        1.4690093541
  C        19.0622085869        2.5470243273        2.3641387651
  H        18.0607536209        4.4724896052        2.6609272181
  H        21.1900490436        0.4534078451       -0.3857919942
  H        20.2131451632        0.8195682533        1.8155116906
  H        18.8584188459        2.2406851758        3.4784053443
  C        15.0725807810        5.6439046054        2.3218801269
  C        15.7357085185        6.6760862739        1.7397669384
  C        16.2548276751        6.4977617597        0.3965535592
  C        16.9813075180        7.5182415908       -0.3216558472
  C        14.8600137585        4.3897187813        1.6989876017
  H        14.5699043962        5.7539178128        3.3310016205
  H        15.7622854008        7.5437432652        2.2371501688
  H        17.1254320180        8.4034753718        0.2180600342
  H        14.2525994397        3.7476376822        2.2986821011
  C        16.0080289058        5.2824067079       -0.2497201122
  C        17.5195968773        7.2705585160       -1.5854752308
  C        15.2562790704        4.2502135755        0.3879591506
  C        16.4230166873        5.0539857099       -1.6023516470
  C        17.1792637436        6.0597231782       -2.1770613906
  H        17.9479600858        7.9659045702       -2.1192464186
  H        14.9334796533        3.3862108621       -0.0783154318
  H        16.1930656857        4.2257165950       -2.1145295706
  H        17.4139312544        5.8283689032       -3.1992146688
  C        21.3509293619        8.9127500300       -2.4187908750
  C        20.7145726936        9.8373339106       -1.5756113952
  C        20.2070564019        9.4435532234       -0.2708819538
  C        19.4983651185       10.3272179686        0.5788697506
  C        21.5590063607        7.6462645506       -2.0190974624
  H        21.6629479285        9.3294956192       -3.3225724722
  H        20.5402901968       10.9310250223       -1.7440248248
  H        19.2683183604       11.2307947264        0.1182965546
  H        21.9880797654        7.0654614800       -2.7331833902
  C        20.5226034644        8.2140736065        0.1621308434
  C        19.1305158595       10.0064549344        1.8790764308
  C        21.1478394894        7.2704929600       -0.7055241691
  C        20.1498445169        7.8380078006        1.5381239131
  C        19.4396906695        8.7362909918        2.3581639350
  H        18.5193187797       10.5548842479        2.5473165948
  H        21.2489828914        6.2971769793       -0.4325655121
  H        20.1883489858        6.9092698276        1.8896745822
  H        19.0510522764        8.5645159408        3.3880000663
  C        15.2775795360       12.0316862368        2.5512400277
  C        16.0611921063       12.8830680392        1.7568600998
  C        16.4770612655       12.4335193677        0.4292790357
  C        17.2865272702       13.2725027882       -0.4285796478
  C        14.8722158624       10.7904971063        2.0506657582
  H        14.8580187569       12.2118278472        3.5647734074
  H        16.4899868254       13.7256425909        2.1999782280
  H        17.5205855413       14.1902397402       -0.0633066378
  H        14.2926807877       10.2654242701        2.7684045307
  C        16.0732973970       11.2305302449       -0.0718367499
  C        17.6038555420       12.8786199708       -1.6977987198
  C        15.2799801497       10.3928335080        0.7253588004
  C        16.4843031452       10.7656097836       -1.3702407784
  C        17.2042593860       11.6401166922       -2.2180204189
  H        18.0162064400       13.6011146332       -2.3526187283
  H        15.0150808172        9.4003816530        0.5486603275
  H        16.2896867837        9.8383100911       -1.6758515009
  H        17.4610401303       11.2696378099       -3.2366330431
  C        21.5872652692       15.0612256715       -2.4928939314
  C        20.7538186036       15.8791072820       -1.7480199368
  C        20.4306007203       15.4490421701       -0.4024295631
  C        19.6793626538       16.3551100741        0.4127853573
  C        21.8986574248       13.7439392845       -2.1089456656
  H        21.9767417322       15.2526220569       -3.4708572632
  H        20.5033122638       16.9268741896       -1.9191778350
  H        19.5412232010       17.2998978152        0.0288447009
  H        22.4371035516       13.2900449729       -2.7195902746
  C        20.7072132327       14.1601969838        0.0307343199