 DBCSR| Multiplication driver                                               XSMM
 DBCSR| Multrec recursion limit                                              512
 DBCSR| Multiplication stack size                                           1000
 DBCSR| Maximum elements for images                                    UNLIMITED
 DBCSR| Randmat seed                                                    12341313
 DBCSR| Multiplication size stacks                                             3


  **** **** ******  **  PROGRAM STARTED AT               2021-04-29 14:23:29.578
 ***** ** ***  *** **   PROGRAM STARTED ON               bulstake.phys.ucl.ac.uk
 **    ****   ******    PROGRAM STARTED BY                             sgiannini
 ***** **    ** ** **   PROGRAM PROCESS ID                                 12956
  **** **  *******  **  PROGRAM STARTED IN /scratch/sgiannini/REG_TEST_MERGING/3
                                           7-071a0540f1_code_extension_V3_ADJ/ru
                                           n-fssh-0

 CP2K| version string:                    CP2K version 4.0 (Development Version)
 CP2K| source code revision number:                                  git:1080fc1
 CP2K| cp2kflags: libint fftw3 libxc quip smm_dnn smm libxsmm libderiv_max_am1=5
 CP2K|             libint_max_am=6
 CP2K| is freely available from                            https://www.cp2k.org/
 CP2K| Program compiled at                          Thu 29 Apr 10:11:08 BST 2021
 CP2K| Program compiled on                               bulstake.phys.ucl.ac.uk
 CP2K| Program compiled for                                         local_hetero
 CP2K| Data directory path           /scratch/sgiannini/flavoured-cptk/cp2k/data
 CP2K| Input file name                                                   run.inp

 GLOBAL| Force Environment number                                              1
 GLOBAL| Basis set file name                                           POTENTIAL
 GLOBAL| MM Potential file name                                     MM_POTENTIAL
 GLOBAL| Coordinate file name                                       pos-init.xyz
 GLOBAL| Force Environment number                                              2
 GLOBAL| Basis set file name                                           POTENTIAL
 GLOBAL| MM Potential file name                                     MM_POTENTIAL
 GLOBAL| Coordinate file name                                       pos-init.xyz
 GLOBAL| Force Environment number                                              3
 GLOBAL| Basis set file name                                           POTENTIAL
 GLOBAL| MM Potential file name                                     MM_POTENTIAL
 GLOBAL| Coordinate file name                                       pos-init.xyz
 GLOBAL| Method name                                                        CP2K
 GLOBAL| Project name                                                        run
 GLOBAL| Preferred FFT library                                             FFTW3
 GLOBAL| Preferred diagonalization lib.                                       SL
 GLOBAL| Run type                                                             MD
 GLOBAL| All-to-all communication in single precision                          F
 GLOBAL| FFTs using library dependent lengths                                  F
 GLOBAL| Global print level                                                  LOW
 GLOBAL| Total number of message passing processes                             1
 GLOBAL| Number of threads for this process                                    1
 GLOBAL| This output is from process                                           0
 GLOBAL| CPU model name :  Intel(R) Xeon(R) CPU E5-2687W v4 @ 3.00GHz

 MEMORY| system memory details [Kb]
 MEMORY|                        rank 0           min           max       average
 MEMORY| MemTotal             65894336      65894336      65894336      65894336
 MEMORY| MemFree               6947424       6947424       6947424       6947424
 MEMORY| Buffers                  8744          8744          8744          8744
 MEMORY| Cached               40779116      40779116      40779116      40779116
 MEMORY| Slab                  3236700       3236700       3236700       3236700
 MEMORY| SReclaimable          2479316       2479316       2479316       2479316
 MEMORY| MemLikelyFree        50214600      50214600      50214600      50214600

 TOTAL NUMBER OF FORCE EVALS           3
 NOTE:n_subforce_eval           2
 DECOMP =  T
 DECOMP =  T

 MD| Molecular Dynamics Protocol 
 MD| Ensemble Type                                                           NVE
 MD| Number of Time Steps                                                    200
 MD| Time Step [fs]                                                         0.10
 MD| Temperature [K]                                                      400.00
 MD| Temperature tolerance [K]                                              0.00
 MD| Print MD information every                                        1 step(s)
 MD| File type     Print frequency[steps]                             File names
 MD| Coordinates          200                                      run-pos-1.xyz
 MD| Velocities             1                                      run-vel-1.xyz
 MD| Energies               1                                         run-1.ener
 MD| Dump                 200                                      run-1.restart

 ROT| Rotational Analysis Info 
 ROT| Principal axes and moments of inertia in atomic units:
 ROT|                                1                 2                 3
 ROT| EIGENVALUES            0.319196005E+10   0.583971964E+10   0.882037602E+10
 ROT|      X                     0.997631408       0.066105605       0.019016393
 ROT|      Y                     0.066118536      -0.997811774      -0.000051363
 ROT|      Z                    -0.018971385      -0.001308578       0.999819171
 ROT| Numer of Rotovibrational vectors:     6

 Calculation of degrees of freedom
                                                      Number of atoms:       900
                                 Number of Intramolecular constraints:         0
                                 Number of Intermolecular constraints:         0
                                  Invariants(translation + rotations):         3
                                                   Degrees of freedom:      2697


 Restraints Information
                                  Number of Intramolecular restraints:         0
                                  Number of Intermolecular restraints:         0

 *** WARNING in motion/thermostat/thermostat_methods.F:280 :: Thermostat ***
 *** for Particles has been defined but the ensemble provided does not   ***
 *** support thermostat for Particles! Ignoring thermostat input.        ***

 ************************** Velocities initialization **************************
 Initial Temperature                                                    564.84 K
 COM velocity:           -0.000000000004     -0.000000000000      0.000000000001
 *******************************************************************************

 FIRST CALL: force_env_calc_energy_force
 RESTART_KEY F
 FOB-SH: ALLOCATION OF S MATRICES
 ACTIVE STATE           2
 FOBSH| ACTIVE STATE =            2

 ENERGY| Total FORCE_EVAL ( MIXED ) energy (a.u.):             2.445897937049577

 STEP NUMBER                  =            0
 CPU TIME [s]                 =    0.0000000000000000        0.0000000000000000     

 MD_ENERGIES| Initialization proceeding


 ******************************** GO CP2K GO! **********************************
 INITIAL POTENTIAL ENERGY[hartree]     =                      0.244589793705E+01
 INITIAL KINETIC ENERGY[hartree]       =                      0.241212372912E+01
 INITIAL TEMPERATURE[K]                =                                 564.841
 INITIAL VOLUME[bohr^3]                =                      0.580604601118E+05
 INITIAL CELL LNTHS[bohr]   =      0.7651501E+02   0.5624770E+02   0.1634991E+02
 INITIAL CELL ANGLS[deg]    =      0.9000000E+02   0.1244000E+03   0.9000000E+02
 ******************************** GO CP2K GO! **********************************
 FOBSH| *** OFF-DIAGONAL GRADIENT CALCULATION
 FOBSH| Put former active state           2 in new active state           2
 RANDOM_NUMBER_HOPPING_PROBA  0.36832894003307903     
 FOBSH| ACTIVE STATE =            2

 ENERGY| Total FORCE_EVAL ( MIXED ) energy (a.u.):             2.417111093195046

 FOBSH| CASE1: no hop and no trivial crossing
 ENTER integrator.F
 STEP NUMBER                  =            1
 CPU TIME [s]                 =   0.74440214782953262       0.74440214782953262     

 *******************************************************************************
 ENSEMBLE TYPE                =                                              NVE
 STEP NUMBER                  =                                                1
 TIME [fs]                    =                                         0.100000
 CONSERVED QUANTITY [hartree] =                               0.485799922362E+01

                                              INSTANTANEOUS             AVERAGES
 CPU TIME [s]                 =                        0.74                 0.74
 ENERGY DRIFT PER ATOM [K]    =         -0.787421208181E-02   0.000000000000E+00
 POTENTIAL ENERGY[hartree]    =          0.241711109320E+01   0.241711109320E+01
 KINETIC ENERGY [hartree]     =          0.244088813042E+01   0.244088813042E+01
 TEMPERATURE [K]              =                     571.576              571.576
 *******************************************************************************

 FOBSH| *** OFF-DIAGONAL GRADIENT CALCULATION
 FOBSH| Put former active state           2 in new active state           2
 RANDOM_NUMBER_HOPPING_PROBA  0.25812182056003685     
 FOBSH| ACTIVE STATE =            2

 ENERGY| Total FORCE_EVAL ( MIXED ) energy (a.u.):             2.389696879283109

 FOBSH| CASE1: no hop and no trivial crossing
 ENTER integrator.F
 STEP NUMBER                  =            2
 CPU TIME [s]                 =   0.21654777601361275       0.48047496192157269     

 *******************************************************************************
 ENSEMBLE TYPE                =                                              NVE
 STEP NUMBER                  =                                                2
 TIME [fs]                    =                                         0.200000
 CONSERVED QUANTITY [hartree] =                               0.485797829752E+01

                                              INSTANTANEOUS             AVERAGES
 CPU TIME [s]                 =                        0.22                 0.48
 ENERGY DRIFT PER ATOM [K]    =         -0.152163557321E-01  -0.760817786603E-02
 POTENTIAL ENERGY[hartree]    =          0.238969687928E+01   0.240340398624E+01
 KINETIC ENERGY [hartree]     =          0.246828141824E+01   0.245458477433E+01
 TEMPERATURE [K]              =                     577.991              574.784
 *******************************************************************************

 FOBSH| *** OFF-DIAGONAL GRADIENT CALCULATION
 FOBSH| Put former active state           2 in new active state           2
 RANDOM_NUMBER_HOPPING_PROBA  0.45872223293739944     
 FOBSH| ACTIVE STATE =            2

 ENERGY| Total FORCE_EVAL ( MIXED ) energy (a.u.):             2.363987718937208

 FOBSH| CASE1: no hop and no trivial crossing
 ENTER integrator.F
 STEP NUMBER                  =            3
 CPU TIME [s]                 =   0.22724835574626923       0.39606609319647151     

 *******************************************************************************
 ENSEMBLE TYPE                =                                              NVE
 STEP NUMBER                  =                                                3
 TIME [fs]                    =                                         0.300000
 CONSERVED QUANTITY [hartree] =                               0.485795901024E+01

                                              INSTANTANEOUS             AVERAGES
 CPU TIME [s]                 =                        0.23                 0.40
 ENERGY DRIFT PER ATOM [K]    =         -0.219835048184E-01  -0.123999535168E-01
 POTENTIAL ENERGY[hartree]    =          0.236398771894E+01   0.239026523047E+01
 KINETIC ENERGY [hartree]     =          0.249397129131E+01   0.246771361332E+01
 TEMPERATURE [K]              =                     584.007              577.858
 *******************************************************************************

 FOBSH| *** OFF-DIAGONAL GRADIENT CALCULATION
 FOBSH| Put former active state           2 in new active state           2
 RANDOM_NUMBER_HOPPING_PROBA  0.66592472524203894     
 FOBSH| ACTIVE STATE =            2

 ENERGY| Total FORCE_EVAL ( MIXED ) energy (a.u.):             2.340289774221640

 FOBSH| CASE1: no hop and no trivial crossing
 ENTER integrator.F
 STEP NUMBER                  =            4
 CPU TIME [s]                 =   0.25558418408036232       0.36094561591744423     

 *******************************************************************************
 ENSEMBLE TYPE                =                                              NVE
 STEP NUMBER                  =                                                4
 TIME [fs]                    =                                         0.400000
 CONSERVED QUANTITY [hartree] =                               0.485794158032E+01

                                              INSTANTANEOUS             AVERAGES
 CPU TIME [s]                 =                        0.26                 0.36
 ENERGY DRIFT PER ATOM [K]    =         -0.280989796727E-01  -0.163247100558E-01
 POTENTIAL ENERGY[hartree]    =          0.234028977422E+01   0.237777136641E+01
 KINETIC ENERGY [hartree]     =          0.251765180610E+01   0.248019816152E+01
 TEMPERATURE [K]              =                     589.552              580.781
 *******************************************************************************

 FOBSH| *** OFF-DIAGONAL GRADIENT CALCULATION
 FOBSH| Put former active state           2 in new active state           2
 RANDOM_NUMBER_HOPPING_PROBA  0.11613064681998794     
 FOBSH| ACTIVE STATE =            2

 ENERGY| Total FORCE_EVAL ( MIXED ) energy (a.u.):             2.318879458177534

 FOBSH| CASE1: no hop and no trivial crossing
 ENTER integrator.F
 STEP NUMBER                  =            5
 CPU TIME [s]                 =   0.25699794478714466       0.34015608169138434     

 *******************************************************************************
 ENSEMBLE TYPE                =                                              NVE
 STEP NUMBER                  =                                                5
 TIME [fs]                    =                                         0.500000
 CONSERVED QUANTITY [hartree] =                               0.485792621705E+01

                                              INSTANTANEOUS             AVERAGES
 CPU TIME [s]                 =                        0.26                 0.34
 ENERGY DRIFT PER ATOM [K]    =         -0.334893477789E-01  -0.197576376004E-01
 POTENTIAL ENERGY[hartree]    =          0.231887945818E+01   0.236599298476E+01
 KINETIC ENERGY [hartree]     =          0.253904675887E+01   0.249196788099E+01
 TEMPERATURE [K]              =                     594.562              583.537
 *******************************************************************************

 FOBSH| *** OFF-DIAGONAL GRADIENT CALCULATION
 FOBSH| Put former active state           2 in new active state           2
 RANDOM_NUMBER_HOPPING_PROBA  0.81915661724856514     
 FOBSH| ACTIVE STATE =            2

 ENERGY| Total FORCE_EVAL ( MIXED ) energy (a.u.):             2.300000059569387

 FOBSH| CASE1: no hop and no trivial crossing
 ENTER integrator.F
 STEP NUMBER                  =            6
 CPU TIME [s]                 =   0.17815246805548668       0.31315547941873467     

 *******************************************************************************
 ENSEMBLE TYPE                =                                              NVE
 STEP NUMBER                  =                                                6
 TIME [fs]                    =                                         0.600000
 CONSERVED QUANTITY [hartree] =                               0.485791309644E+01

                                              INSTANTANEOUS             AVERAGES
 CPU TIME [s]                 =                        0.18                 0.31
 ENERGY DRIFT PER ATOM [K]    =         -0.380928554440E-01  -0.228135072410E-01
 POTENTIAL ENERGY[hartree]    =          0.230000005957E+01   0.235499416390E+01
 KINETIC ENERGY [hartree]     =          0.255791303687E+01   0.250295874030E+01
 TEMPERATURE [K]              =                     598.980              586.111
 *******************************************************************************

 FOBSH| *** OFF-DIAGONAL GRADIENT CALCULATION
 FOBSH| Put former active state           2 in new active state           2
 RANDOM_NUMBER_HOPPING_PROBA  0.98442403919999499     
 FOBSH| ACTIVE STATE =            2

 ENERGY| Total FORCE_EVAL ( MIXED ) energy (a.u.):             2.283858753797212

 FOBSH| CASE1: no hop and no trivial crossing
 ENTER integrator.F
 STEP NUMBER                  =            7
 CPU TIME [s]                 =   0.17733796127140522       0.29375297682625906     

 *******************************************************************************
 ENSEMBLE TYPE                =                                              NVE
 STEP NUMBER                  =                                                7
 TIME [fs]                    =                                         0.700000
 CONSERVED QUANTITY [hartree] =                               0.485790240153E+01

                                              INSTANTANEOUS             AVERAGES
 CPU TIME [s]                 =                        0.18                 0.29
 ENERGY DRIFT PER ATOM [K]    =         -0.418452783613E-01  -0.255323316868E-01
 POTENTIAL ENERGY[hartree]    =          0.228385875380E+01   0.234483196245E+01
 KINETIC ENERGY [hartree]     =          0.257404364773E+01   0.251311372708E+01
 TEMPERATURE [K]              =                     602.757              588.489
 *******************************************************************************

 FOBSH| *** OFF-DIAGONAL GRADIENT CALCULATION
 FOBSH| Put former active state           2 in new active state           2
 RANDOM_NUMBER_HOPPING_PROBA  0.48837860337988231     
 FOBSH| ACTIVE STATE =            2

 ENERGY| Total FORCE_EVAL ( MIXED ) energy (a.u.):             2.270623958806217

 FOBSH| CASE1: no hop and no trivial crossing
 ENTER integrator.F
 STEP NUMBER                  =            8
 CPU TIME [s]                 =   0.18775045312941074       0.28050266136415303     

 *******************************************************************************
 ENSEMBLE TYPE                =                                              NVE
 STEP NUMBER                  =                                                8
 TIME [fs]                    =                                         0.800000
 CONSERVED QUANTITY [hartree] =                               0.485789424592E+01

                                              INSTANTANEOUS             AVERAGES
 CPU TIME [s]                 =                        0.19                 0.28
 ENERGY DRIFT PER ATOM [K]    =         -0.447067611665E-01  -0.279291353717E-01
 POTENTIAL ENERGY[hartree]    =          0.227062395881E+01   0.233555596200E+01
 KINETIC ENERGY [hartree]     =          0.258727028712E+01   0.252238329708E+01
 TEMPERATURE [K]              =                     605.854              590.660
 *******************************************************************************

 FOBSH| *** OFF-DIAGONAL GRADIENT CALCULATION
 FOBSH| Put former active state           2 in new active state           2
 RANDOM_NUMBER_HOPPING_PROBA  0.74834436682416794     
 FOBSH| ACTIVE STATE =            2

 ENERGY| Total FORCE_EVAL ( MIXED ) energy (a.u.):             2.260423317364902

 FOBSH| CASE1: no hop and no trivial crossing
 ENTER integrator.F
 STEP NUMBER                  =            9
 CPU TIME [s]                 =   0.22859814204275608       0.27473549255066448     

 *******************************************************************************
 ENSEMBLE TYPE                =                                              NVE
 STEP NUMBER                  =                                                9
 TIME [fs]                    =                                         0.900000
 CONSERVED QUANTITY [hartree] =                               0.485788873984E+01

                                              INSTANTANEOUS             AVERAGES
 CPU TIME [s]                 =                        0.23                 0.27
 ENERGY DRIFT PER ATOM [K]    =         -0.466386301852E-01  -0.300079681288E-01
 POTENTIAL ENERGY[hartree]    =          0.226042331736E+01   0.232720789037E+01
 KINETIC ENERGY [hartree]     =          0.259746542247E+01   0.253072575546E+01
 TEMPERATURE [K]              =                     608.242              592.613
 *******************************************************************************

 FOBSH| *** OFF-DIAGONAL GRADIENT CALCULATION
 FOBSH| Put former active state           2 in new active state           2
 RANDOM_NUMBER_HOPPING_PROBA  0.47055881397710964     
 FOBSH| ACTIVE STATE =            2

 ENERGY| Total FORCE_EVAL ( MIXED ) energy (a.u.):             2.253342103350415

 FOBSH| CASE1: no hop and no trivial crossing
 ENTER integrator.F
 STEP NUMBER                  =           10
 CPU TIME [s]                 =   0.27360318787395954       0.27462226208299401     

 *******************************************************************************
 ENSEMBLE TYPE                =                                              NVE
 STEP NUMBER                  =                                               10
 TIME [fs]                    =                                         1.000000
 CONSERVED QUANTITY [hartree] =                               0.485788593447E+01

                                              INSTANTANEOUS             AVERAGES
 CPU TIME [s]                 =                        0.27                 0.27
 ENERGY DRIFT PER ATOM [K]    =         -0.476229218540E-01  -0.317694635013E-01
 POTENTIAL ENERGY[hartree]    =          0.225334210335E+01   0.231982131167E+01
 KINETIC ENERGY [hartree]     =          0.260454383112E+01   0.253810756303E+01
 TEMPERATURE [K]              =                     609.899              594.342
 *******************************************************************************

 FOBSH| *** OFF-DIAGONAL GRADIENT CALCULATION
 FOBSH| Put former active state           2 in new active state           2
 RANDOM_NUMBER_HOPPING_PROBA  0.13436164193489161     
 FOBSH| ACTIVE STATE =            2

 ENERGY| Total FORCE_EVAL ( MIXED ) energy (a.u.):             2.249422269670191

 FOBSH| CASE1: no hop and no trivial crossing
 ENTER integrator.F
 STEP NUMBER                  =           11
 CPU TIME [s]                 =   0.27082368358969688       0.27427693676542153     

 *******************************************************************************
 ENSEMBLE TYPE                =                                              NVE
 STEP NUMBER                  =                                               11
 TIME [fs]                    =                                         1.100000
 CONSERVED QUANTITY [hartree] =                               0.485788586735E+01

                                              INSTANTANEOUS             AVERAGES
 CPU TIME [s]                 =                        0.27                 0.27
 ENERGY DRIFT PER ATOM [K]    =         -0.476464720613E-01  -0.332128279159E-01
 POTENTIAL ENERGY[hartree]    =          0.224942226967E+01   0.231342139876E+01
 KINETIC ENERGY [hartree]     =          0.260846359768E+01   0.254450356618E+01
 TEMPERATURE [K]              =                     610.817              595.840
 *******************************************************************************

 FOBSH| *** OFF-DIAGONAL GRADIENT CALCULATION
 FOBSH| Put former active state           2 in new active state           2
 RANDOM_NUMBER_HOPPING_PROBA  0.61395954287228760     
 FOBSH| ACTIVE STATE =            2

 ENERGY| Total FORCE_EVAL ( MIXED ) energy (a.u.):             2.248661983911272

 FOBSH| CASE1: no hop and no trivial crossing
 ENTER integrator.F
 STEP NUMBER                  =           12
 CPU TIME [s]                 =   0.28830179944634438       0.27544567532216507     

 *******************************************************************************
 ENSEMBLE TYPE                =                                              NVE
 STEP NUMBER                  =                                               12
 TIME [fs]                    =                                         1.200000
 CONSERVED QUANTITY [hartree] =                               0.485788850615E+01

                                              INSTANTANEOUS             AVERAGES
 CPU TIME [s]                 =                        0.29                 0.28
 ENERGY DRIFT PER ATOM [K]    =         -0.467206209115E-01  -0.343384773322E-01
 POTENTIAL ENERGY[hartree]    =          0.224866198391E+01   0.230802478086E+01
 KINETIC ENERGY [hartree]     =          0.260922652224E+01   0.254989714585E+01
 TEMPERATURE [K]              =                     610.996              597.103
 *******************************************************************************

 FOBSH| *** OFF-DIAGONAL GRADIENT CALCULATION
 FOBSH| Put former active state           2 in new active state           2
 RANDOM_NUMBER_HOPPING_PROBA  0.96457107309968759     
 FOBSH| ACTIVE STATE =            2

 ENERGY| Total FORCE_EVAL ( MIXED ) energy (a.u.):             2.251015913126993

 FOBSH| CASE1: no hop and no trivial crossing
 ENTER integrator.F
 STEP NUMBER                  =           13
 CPU TIME [s]                 =   0.28193811140954494       0.27594509348273277     

 *******************************************************************************
 ENSEMBLE TYPE                =                                              NVE
 STEP NUMBER                  =                                               13
 TIME [fs]                    =                                         1.300000
 CONSERVED QUANTITY [hartree] =                               0.485789382209E+01

                                              INSTANTANEOUS             AVERAGES
 CPU TIME [s]                 =                        0.28                 0.28
 ENERGY DRIFT PER ATOM [K]    =         -0.448554676927E-01  -0.351474765907E-01
 POTENTIAL ENERGY[hartree]    =          0.225101591313E+01   0.230363948334E+01
 KINETIC ENERGY [hartree]     =          0.260687790896E+01   0.255428028147E+01
 TEMPERATURE [K]              =                     610.446              598.129
 *******************************************************************************

 FOBSH| *** OFF-DIAGONAL GRADIENT CALCULATION
 FOBSH| Put former active state           2 in new active state           2
 RANDOM_NUMBER_HOPPING_PROBA  0.66751708994702319     
 FOBSH| ACTIVE STATE =            2

 ENERGY| Total FORCE_EVAL ( MIXED ) energy (a.u.):             2.256395886174570

 FOBSH| CASE1: no hop and no trivial crossing
 ENTER integrator.F
 STEP NUMBER                  =           14
 CPU TIME [s]                 =   0.23969856090843678       0.27335605544171160     

 *******************************************************************************
 ENSEMBLE TYPE                =                                              NVE
 STEP NUMBER                  =                                               14
 TIME [fs]                    =                                         1.400000
 CONSERVED QUANTITY [hartree] =                               0.485790172699E+01

                                              INSTANTANEOUS             AVERAGES
 CPU TIME [s]                 =                        0.24                 0.27
 ENERGY DRIFT PER ATOM [K]    =         -0.420819490746E-01  -0.356427960538E-01
 POTENTIAL ENERGY[hartree]    =          0.225639588617E+01   0.230026494068E+01
 KINETIC ENERGY [hartree]     =          0.260150584081E+01   0.255765353571E+01
 TEMPERATURE [K]              =                     609.188              598.919
 *******************************************************************************

 FOBSH| *** OFF-DIAGONAL GRADIENT CALCULATION
 FOBSH| Put former active state           2 in new active state           2
 RANDOM_NUMBER_HOPPING_PROBA  0.15813975196636013     
 FOBSH| ACTIVE STATE =            2

 ENERGY| Total FORCE_EVAL ( MIXED ) energy (a.u.):             2.264672199095989

 FOBSH| CASE1: no hop and no trivial crossing
 ENTER integrator.F
 STEP NUMBER                  =           15
 CPU TIME [s]                 =   0.26622023247182369       0.27288033391038574     

 *******************************************************************************
 ENSEMBLE TYPE                =                                              NVE
 STEP NUMBER                  =                                               15
 TIME [fs]                    =                                         1.500000
 CONSERVED QUANTITY [hartree] =                               0.485791211829E+01

                                              INSTANTANEOUS             AVERAGES
 CPU TIME [s]                 =                        0.27                 0.27
 ENERGY DRIFT PER ATOM [K]    =         -0.384360498024E-01  -0.358290129704E-01
 POTENTIAL ENERGY[hartree]    =          0.226467219910E+01   0.229789209125E+01
 KINETIC ENERGY [hartree]     =          0.259323991919E+01   0.256002596128E+01
 TEMPERATURE [K]              =                     607.252              599.474
 *******************************************************************************

 FOBSH| *** OFF-DIAGONAL GRADIENT CALCULATION
 FOBSH| Put former active state           2 in new active state           2
 RANDOM_NUMBER_HOPPING_PROBA   1.8543802866970889E-002
 FOBSH| ACTIVE STATE =            2

 ENERGY| Total FORCE_EVAL ( MIXED ) energy (a.u.):             2.275675396317988

 FOBSH| CASE1: no hop and no trivial crossing
 ENTER integrator.F
 STEP NUMBER                  =           16
 CPU TIME [s]                 =   0.19974908977746964       0.26830963115207851     

 *******************************************************************************
 ENSEMBLE TYPE                =                                              NVE
 STEP NUMBER                  =                                               16
 TIME [fs]                    =                                         1.600000
 CONSERVED QUANTITY [hartree] =                               0.485792483434E+01

                                              INSTANTANEOUS             AVERAGES
 CPU TIME [s]                 =                        0.20                 0.27
 ENERGY DRIFT PER ATOM [K]    =         -0.339744867190E-01  -0.357131050797E-01
 POTENTIAL ENERGY[hartree]    =          0.227567539632E+01   0.229650354781E+01
 KINETIC ENERGY [hartree]     =          0.258224943802E+01   0.256141492857E+01
 TEMPERATURE [K]              =                     604.678              599.800
 *******************************************************************************

 FOBSH| *** OFF-DIAGONAL GRADIENT CALCULATION
 FOBSH| Put former active state           2 in new active state           2
 RANDOM_NUMBER_HOPPING_PROBA  0.55447641139176995     
 FOBSH| ACTIVE STATE =            2

 ENERGY| Total FORCE_EVAL ( MIXED ) energy (a.u.):             2.289198753393926

 FOBSH| CASE1: no hop and no trivial crossing
 ENTER integrator.F
 STEP NUMBER                  =           17
 CPU TIME [s]                 =   0.19748173840343952       0.26414328451980562     

 *******************************************************************************
 ENSEMBLE TYPE                =                                              NVE
 STEP NUMBER                  =                                               17
 TIME [fs]                    =                                         1.700000
 CONSERVED QUANTITY [hartree] =                               0.485793969942E+01

                                              INSTANTANEOUS             AVERAGES
 CPU TIME [s]                 =                        0.20                 0.26
 ENERGY DRIFT PER ATOM [K]    =         -0.287589144899E-01  -0.353040350450E-01
 POTENTIAL ENERGY[hartree]    =          0.228919875339E+01   0.229607385402E+01
 KINETIC ENERGY [hartree]     =          0.256874094603E+01   0.256184587078E+01
 TEMPERATURE [K]              =                     601.515              599.901
 *******************************************************************************

 FOBSH| *** OFF-DIAGONAL GRADIENT CALCULATION
 FOBSH| Put former active state           2 in new active state           2
 RANDOM_NUMBER_HOPPING_PROBA  0.46705821136667119     
 FOBSH| ACTIVE STATE =            2

 ENERGY| Total FORCE_EVAL ( MIXED ) energy (a.u.):             2.305001123368087

 FOBSH| CASE1: no hop and no trivial crossing
 ENTER integrator.F
 STEP NUMBER                  =           18
 CPU TIME [s]                 =   0.19531457126140594       0.26031946711656118     

 *******************************************************************************
 ENSEMBLE TYPE                =                                              NVE
 STEP NUMBER                  =                                               18
 TIME [fs]                    =                                         1.800000
 CONSERVED QUANTITY [hartree] =                               0.485795650703E+01

                                              INSTANTANEOUS             AVERAGES
 CPU TIME [s]                 =                        0.20                 0.26
 ENERGY DRIFT PER ATOM [K]    =         -0.228617841485E-01  -0.346127988841E-01
 POTENTIAL ENERGY[hartree]    =          0.230500112337E+01   0.229656981343E+01
 KINETIC ENERGY [hartree]     =          0.255295538366E+01   0.256135195483E+01
 TEMPERATURE [K]              =                     597.819              599.785
 *******************************************************************************

 FOBSH| *** OFF-DIAGONAL GRADIENT CALCULATION
 FOBSH| Put former active state           2 in new active state           2
 RANDOM_NUMBER_HOPPING_PROBA  0.17124770665995848     
 FOBSH| ACTIVE STATE =            2

 ENERGY| Total FORCE_EVAL ( MIXED ) energy (a.u.):             2.322810224329566

 FOBSH| CASE1: no hop and no trivial crossing
 ENTER integrator.F
 STEP NUMBER                  =           19
 CPU TIME [s]                 =   0.19005187600851059       0.25662117284771641     

 *******************************************************************************
 ENSEMBLE TYPE                =                                              NVE
 STEP NUMBER                  =                                               19
 TIME [fs]                    =                                         1.900000
 CONSERVED QUANTITY [hartree] =                               0.485797503206E+01

                                              INSTANTANEOUS             AVERAGES
 CPU TIME [s]                 =                        0.19                 0.26
 ENERGY DRIFT PER ATOM [K]    =         -0.163620780834E-01  -0.336522346314E-01
 POTENTIAL ENERGY[hartree]    =          0.232281022433E+01   0.229795088769E+01
 KINETIC ENERGY [hartree]     =          0.253516480773E+01   0.255997368393E+01
 TEMPERATURE [K]              =                     593.653              599.462
 *******************************************************************************

 FOBSH| *** OFF-DIAGONAL GRADIENT CALCULATION
 FOBSH| Put former active state           2 in new active state           2
 RANDOM_NUMBER_HOPPING_PROBA  0.38379703551292965     
 FOBSH| ACTIVE STATE =            2

 ENERGY| Total FORCE_EVAL ( MIXED ) energy (a.u.):             2.342326314525503

 FOBSH| CASE1: no hop and no trivial crossing
 ENTER integrator.F
 STEP NUMBER                  =           20
 CPU TIME [s]                 =   0.19883905537426472       0.25373206697404382     

 *******************************************************************************
 ENSEMBLE TYPE                =                                              NVE
 STEP NUMBER                  =                                               20
 TIME [fs]                    =                                         2.000000
 CONSERVED QUANTITY [hartree] =                               0.485799500809E+01

                                              INSTANTANEOUS             AVERAGES
 CPU TIME [s]                 =                        0.20                 0.25
 ENERGY DRIFT PER ATOM [K]    =         -0.935327541879E-02  -0.324372866708E-01
 POTENTIAL ENERGY[hartree]    =          0.234232631453E+01   0.230016965903E+01
 KINETIC ENERGY [hartree]     =          0.251566869356E+01   0.255775843441E+01
 TEMPERATURE [K]              =                     589.087              598.943
 *******************************************************************************

 FOBSH| *** OFF-DIAGONAL GRADIENT CALCULATION
 FOBSH| Put former active state           2 in new active state           2
 RANDOM_NUMBER_HOPPING_PROBA  0.73695705884300833     
 FOBSH| ACTIVE STATE =            2

 ENERGY| Total FORCE_EVAL ( MIXED ) energy (a.u.):             2.363226339908285

 FOBSH| CASE1: no hop and no trivial crossing
 ENTER integrator.F
 STEP NUMBER                  =           21
 CPU TIME [s]                 =   0.18599596805870533       0.25050653845426579     

 *******************************************************************************
 ENSEMBLE TYPE                =                                              NVE
 STEP NUMBER                  =                                               21
 TIME [fs]                    =                                         2.100000
 CONSERVED QUANTITY [hartree] =                               0.485801616469E+01

                                              INSTANTANEOUS             AVERAGES
 CPU TIME [s]                 =                        0.19                 0.25
 ENERGY DRIFT PER ATOM [K]    =         -0.193025318544E-02  -0.309845707905E-01
 POTENTIAL ENERGY[hartree]    =          0.236322633991E+01   0.230317235812E+01
 KINETIC ENERGY [hartree]     =          0.249478982479E+01   0.255475992919E+01
 TEMPERATURE [K]              =                     584.198              598.241
 *******************************************************************************

 FOBSH| *** OFF-DIAGONAL GRADIENT CALCULATION
 FOBSH| Put former active state           2 in new active state           2
 RANDOM_NUMBER_HOPPING_PROBA  0.63935112743290023     
 FOBSH| ACTIVE STATE =            2

 ENERGY| Total FORCE_EVAL ( MIXED ) energy (a.u.):             2.385168340147713

 FOBSH| CASE1: no hop and no trivial crossing
 ENTER integrator.F
 STEP NUMBER                  =           22
 CPU TIME [s]                 =   0.18740162998437881       0.24763813352381639     

 *******************************************************************************
 ENSEMBLE TYPE                =                                              NVE
 STEP NUMBER                  =                                               22
 TIME [fs]                    =                                         2.200000
 CONSERVED QUANTITY [hartree] =                               0.485803821455E+01

                                              INSTANTANEOUS             AVERAGES
 CPU TIME [s]                 =                        0.19                 0.25
 ENERGY DRIFT PER ATOM [K]    =          0.580617658517E-02  -0.293122640916E-01
 POTENTIAL ENERGY[hartree]    =          0.238516834015E+01   0.230689944821E+01
 KINETIC ENERGY [hartree]     =          0.247286987441E+01   0.255103765397E+01
 TEMPERATURE [K]              =                     579.065              597.370
 *******************************************************************************

 FOBSH| *** OFF-DIAGONAL GRADIENT CALCULATION
 FOBSH| Put former active state           2 in new active state           2
 RANDOM_NUMBER_HOPPING_PROBA  0.61373709134229348     
 FOBSH| ACTIVE STATE =            2

 ENERGY| Total FORCE_EVAL ( MIXED ) energy (a.u.):             2.407796084125261

 FOBSH| CASE1: no hop and no trivial crossing
 ENTER integrator.F
 STEP NUMBER                  =           23
 CPU TIME [s]                 =   0.21352397836744785       0.24615490938658294     

 *******************************************************************************
 ENSEMBLE TYPE                =                                              NVE
 STEP NUMBER                  =                                               23
 TIME [fs]                    =                                         2.300000
 CONSERVED QUANTITY [hartree] =                               0.485806086565E+01

                                              INSTANTANEOUS             AVERAGES
 CPU TIME [s]                 =                        0.21                 0.25
 ENERGY DRIFT PER ATOM [K]    =          0.137535562832E-01  -0.274398371188E-01
 POTENTIAL ENERGY[hartree]    =          0.240779608413E+01   0.231128625847E+01
 KINETIC ENERGY [hartree]     =          0.245026478152E+01   0.254665622473E+01
 TEMPERATURE [K]              =                     573.772              596.344
 *******************************************************************************

 FOBSH| *** OFF-DIAGONAL GRADIENT CALCULATION
 FOBSH| Put former active state           2 in new active state           2
 RANDOM_NUMBER_HOPPING_PROBA  0.43788450748659152     
 FOBSH| ACTIVE STATE =            2

 ENERGY| Total FORCE_EVAL ( MIXED ) energy (a.u.):             2.430743831851577

 FOBSH| CASE1: no hop and no trivial crossing
 ENTER integrator.F
 STEP NUMBER                  =           24
 CPU TIME [s]                 =   0.27895748987793922       0.24752168357372276     

 *******************************************************************************
 ENSEMBLE TYPE                =                                              NVE
 STEP NUMBER                  =                                               24
 TIME [fs]                    =                                         2.400000
 CONSERVED QUANTITY [hartree] =                               0.485808379434E+01

                                              INSTANTANEOUS             AVERAGES
 CPU TIME [s]                 =                        0.28                 0.25
 ENERGY DRIFT PER ATOM [K]    =          0.217983330254E-01  -0.253882466961E-01
 POTENTIAL ENERGY[hartree]    =          0.243074383185E+01   0.231626365736E+01
 KINETIC ENERGY [hartree]     =          0.242733996249E+01   0.254168471381E+01
 TEMPERATURE [K]              =                     568.404              595.180
 *******************************************************************************

 FOBSH| *** OFF-DIAGONAL GRADIENT CALCULATION
 FOBSH| Put former active state           2 in new active state           2
 RANDOM_NUMBER_HOPPING_PROBA  0.79470406968576057     
 FOBSH| ACTIVE STATE =            2

 ENERGY| Total FORCE_EVAL ( MIXED ) energy (a.u.):             2.453641327756880

 FOBSH| CASE1: no hop and no trivial crossing
 ENTER integrator.F
 STEP NUMBER                  =           25
 CPU TIME [s]                 =   0.23567990772426128       0.24704801253974432     

 *******************************************************************************
 ENSEMBLE TYPE                =                                              NVE
 STEP NUMBER                  =                                               25
 TIME [fs]                    =                                         2.500000
 CONSERVED QUANTITY [hartree] =                               0.485810668248E+01

                                              INSTANTANEOUS             AVERAGES
 CPU TIME [s]                 =                        0.24                 0.25
 ENERGY DRIFT PER ATOM [K]    =          0.298288825418E-01  -0.231795615266E-01
 POTENTIAL ENERGY[hartree]    =          0.245364132776E+01   0.232175876418E+01
 KINETIC ENERGY [hartree]     =          0.240446535472E+01   0.253619593944E+01
 TEMPERATURE [K]              =                     563.047              593.894
 *******************************************************************************

 FOBSH| *** OFF-DIAGONAL GRADIENT CALCULATION
 FOBSH| Put former active state           2 in new active state           2
 RANDOM_NUMBER_HOPPING_PROBA   8.0632420902034166E-002
 FOBSH| ACTIVE STATE =            2

 ENERGY| Total FORCE_EVAL ( MIXED ) energy (a.u.):             2.476118886279068

 FOBSH| CASE1: no hop and no trivial crossing
 ENTER integrator.F
 STEP NUMBER                  =           26
 CPU TIME [s]                 =   0.20610077865421772       0.24547311892876253     

 *******************************************************************************
 ENSEMBLE TYPE                =                                              NVE
 STEP NUMBER                  =                                               26
 TIME [fs]                    =                                         2.600000
 CONSERVED QUANTITY [hartree] =                               0.485812921680E+01

                                              INSTANTANEOUS             AVERAGES
 CPU TIME [s]                 =                        0.21                 0.25
 ENERGY DRIFT PER ATOM [K]    =          0.377352912236E-01  -0.208366825747E-01
 POTENTIAL ENERGY[hartree]    =          0.247611888628E+01   0.232769569195E+01
 KINETIC ENERGY [hartree]     =          0.238201033052E+01   0.253026572372E+01
 TEMPERATURE [K]              =                     557.789              592.506
 *******************************************************************************

 FOBSH| *** OFF-DIAGONAL GRADIENT CALCULATION
 FOBSH| Put former active state           2 in new active state           2
 RANDOM_NUMBER_HOPPING_PROBA  0.81073704236962485     
 FOBSH| ACTIVE STATE =            2

 ENERGY| Total FORCE_EVAL ( MIXED ) energy (a.u.):             2.497812393040169

 FOBSH| CASE1: no hop and no trivial crossing
 ENTER integrator.F
 STEP NUMBER                  =           27
 CPU TIME [s]                 =   0.16305110417306423       0.24242045171558849     

 *******************************************************************************
 ENSEMBLE TYPE                =                                              NVE
 STEP NUMBER                  =                                               27
 TIME [fs]                    =                                         2.700000
 CONSERVED QUANTITY [hartree] =                               0.485815110368E+01

                                              INSTANTANEOUS             AVERAGES
 CPU TIME [s]                 =                        0.16                 0.24
 ENERGY DRIFT PER ATOM [K]    =          0.454145360786E-01  -0.183829337357E-01
 POTENTIAL ENERGY[hartree]    =          0.249781239304E+01   0.233399631051E+01
 KINETIC ENERGY [hartree]     =          0.236033871064E+01   0.252397213064E+01
 TEMPERATURE [K]              =                     552.714              591.032
 *******************************************************************************

 FOBSH| *** OFF-DIAGONAL GRADIENT CALCULATION
 FOBSH| Put former active state           2 in new active state           2
 RANDOM_NUMBER_HOPPING_PROBA  0.96132350735256678     
 FOBSH| ACTIVE STATE =            2

 ENERGY| Total FORCE_EVAL ( MIXED ) energy (a.u.):             2.518368120628855

 FOBSH| CASE1: no hop and no trivial crossing
 ENTER integrator.F
 STEP NUMBER                  =           28
 CPU TIME [s]                 =   0.18328642845153809       0.24030852231330094     

 *******************************************************************************
 ENSEMBLE TYPE                =                                              NVE
 STEP NUMBER                  =                                               28
 TIME [fs]                    =                                         2.800000
 CONSERVED QUANTITY [hartree] =                               0.485817204100E+01

                                              INSTANTANEOUS             AVERAGES
 CPU TIME [s]                 =                        0.18                 0.24
 ENERGY DRIFT PER ATOM [K]    =          0.527606191319E-01  -0.158420925618E-01
 POTENTIAL ENERGY[hartree]    =          0.251836812063E+01   0.234058101801E+01
 KINETIC ENERGY [hartree]     =          0.233980392037E+01   0.251739469456E+01
 TEMPERATURE [K]              =                     547.906              589.492
 *******************************************************************************

 FOBSH| *** OFF-DIAGONAL GRADIENT CALCULATION
 FOBSH| Put former active state           2 in new active state           2
 RANDOM_NUMBER_HOPPING_PROBA   8.1592189141357171E-002
 FOBSH| ACTIVE STATE =            2

 ENERGY| Total FORCE_EVAL ( MIXED ) energy (a.u.):             2.537447563977425

 FOBSH| CASE1: no hop and no trivial crossing
 ENTER integrator.F
 STEP NUMBER                  =           29
 CPU TIME [s]                 =   0.18552484922111034       0.23841943013770814     

 *******************************************************************************
 ENSEMBLE TYPE                =                                              NVE
 STEP NUMBER                  =                                               29
 TIME [fs]                    =                                         2.900000
 CONSERVED QUANTITY [hartree] =                               0.485819174356E+01

                                              INSTANTANEOUS             AVERAGES
 CPU TIME [s]                 =                        0.19                 0.24
 ENERGY DRIFT PER ATOM [K]    =          0.596734750306E-01  -0.132381074724E-01
 POTENTIAL ENERGY[hartree]    =          0.253744756398E+01   0.234736951960E+01
 KINETIC ENERGY [hartree]     =          0.232074417959E+01   0.251061364232E+01
 TEMPERATURE [K]              =                     543.442              587.904
 *******************************************************************************

 FOBSH| *** OFF-DIAGONAL GRADIENT CALCULATION
 FOBSH| Put former active state           2 in new active state           2
 RANDOM_NUMBER_HOPPING_PROBA  0.55703783800449935     
 FOBSH| ACTIVE STATE =            2

 ENERGY| Total FORCE_EVAL ( MIXED ) energy (a.u.):             2.554732054499671

 FOBSH| CASE1: no hop and no trivial crossing
 ENTER integrator.F
 STEP NUMBER                  =           30
 CPU TIME [s]                 =   0.17529814131557941       0.23631538717697051     

 *******************************************************************************
 ENSEMBLE TYPE                =                                              NVE
 STEP NUMBER                  =                                               30
 TIME [fs]                    =                                         3.000000
 CONSERVED QUANTITY [hartree] =                               0.485820994363E+01

                                              INSTANTANEOUS             AVERAGES
 CPU TIME [s]                 =                        0.18                 0.24
 ENERGY DRIFT PER ATOM [K]    =          0.660591649006E-01  -0.105948650600E-01
 POTENTIAL ENERGY[hartree]    =          0.255473205450E+01   0.235428160409E+01
 KINETIC ENERGY [hartree]     =          0.230347788913E+01   0.250370911721E+01
 TEMPERATURE [K]              =                     539.399              586.287
 *******************************************************************************

 FOBSH| *** OFF-DIAGONAL GRADIENT CALCULATION
 FOBSH! Reorgering: for state           5  we stay in with overlap  0.49638663771509745       instead of goind to            6 with overlap -0.86391332349613292     
 FOBSH! Reorgering: for state           6  we stay in with overlap  0.49700902123834256       instead of goind to            5 with overlap  0.86751559330783323     
 FOBSH| New map:            1           2           3           4           0           0           7           8
 FOBSH! New map again:           1           2           3           4           0           0           7           8
 FOBSH| Put former active state           2 in new active state           2
 RANDOM_NUMBER_HOPPING_PROBA  0.55020624805309337     
 FOBSH| ACTIVE STATE =            2

 ENERGY| Total FORCE_EVAL ( MIXED ) energy (a.u.):             2.569927043594823

 FOBSH| CASE1: no hop and no trivial crossing
 ENTER integrator.F
 STEP NUMBER                  =           31
 CPU TIME [s]                 =   0.21503778733313084       0.23562901298845956     

 *******************************************************************************
 ENSEMBLE TYPE                =                                              NVE
 STEP NUMBER                  =                                               31
 TIME [fs]                    =                                         3.100000
 CONSERVED QUANTITY [hartree] =                               0.485822636889E+01

                                              INSTANTANEOUS             AVERAGES
 CPU TIME [s]                 =                        0.22                 0.24
 ENERGY DRIFT PER ATOM [K]    =          0.718221439024E-01  -0.793625186765E-02
 POTENTIAL ENERGY[hartree]    =          0.256992704359E+01   0.236123790859E+01
 KINETIC ENERGY [hartree]     =          0.228829932530E+01   0.249676041425E+01
 TEMPERATURE [K]              =                     535.845              584.660
 *******************************************************************************

 FOBSH| *** OFF-DIAGONAL GRADIENT CALCULATION
 FOBSH| Put former active state           2 in new active state           2
 RANDOM_NUMBER_HOPPING_PROBA  0.59113961433922868     
 FOBSH| ACTIVE STATE =            2

 ENERGY| Total FORCE_EVAL ( MIXED ) energy (a.u.):             2.582766249181623

 FOBSH| CASE1: no hop and no trivial crossing
 ENTER integrator.F
 STEP NUMBER                  =           32
 CPU TIME [s]                 =   0.24022488482296467       0.23577263398328785     

 *******************************************************************************
 ENSEMBLE TYPE                =                                              NVE
 STEP NUMBER                  =                                               32
 TIME [fs]                    =                                         3.200000
 CONSERVED QUANTITY [hartree] =                               0.485824081166E+01

                                              INSTANTANEOUS             AVERAGES
 CPU TIME [s]                 =                        0.24                 0.24
 ENERGY DRIFT PER ATOM [K]    =          0.768895438933E-01  -0.528544575012E-02
 POTENTIAL ENERGY[hartree]    =          0.258276624918E+01   0.236816066924E+01
 KINETIC ENERGY [hartree]     =          0.227547456248E+01   0.248984523138E+01
 TEMPERATURE [K]              =                     532.842              583.040
 *******************************************************************************

 FOBSH| *** OFF-DIAGONAL GRADIENT CALCULATION
 FOBSH| Put former active state           2 in new active state           2
 RANDOM_NUMBER_HOPPING_PROBA  0.34464328472637651     
 FOBSH| ACTIVE STATE =            2

 ENERGY| Total FORCE_EVAL ( MIXED ) energy (a.u.):             2.593015248340823

 FOBSH| CASE1: no hop and no trivial crossing
 ENTER integrator.F
 STEP NUMBER                  =           33
 CPU TIME [s]                 =   0.22617485746741295       0.23548179227068558     

 *******************************************************************************
 ENSEMBLE TYPE                =                                              NVE
 STEP NUMBER                  =                                               33
 TIME [fs]                    =                                         3.300000
 CONSERVED QUANTITY [hartree] =                               0.485825306931E+01

                                              INSTANTANEOUS             AVERAGES
 CPU TIME [s]                 =                        0.23                 0.24
 ENERGY DRIFT PER ATOM [K]    =          0.811902723455E-01  -0.266496944420E-02
 POTENTIAL ENERGY[hartree]    =          0.259301524834E+01   0.237497444436E+01
 KINETIC ENERGY [hartree]     =          0.226523782097E+01   0.248303894621E+01
 TEMPERATURE [K]              =                     530.445              581.447
 *******************************************************************************

 FOBSH| *** OFF-DIAGONAL GRADIENT CALCULATION
 FOBSH| Put former active state           2 in new active state           2
 RANDOM_NUMBER_HOPPING_PROBA  0.67867183363152239     
 FOBSH| ACTIVE STATE =            2

 ENERGY| Total FORCE_EVAL ( MIXED ) energy (a.u.):             2.600474681986747

 FOBSH| CASE1: no hop and no trivial crossing
 ENTER integrator.F
 STEP NUMBER                  =           34
 CPU TIME [s]                 =   0.19249736331403255       0.23421754436019579     

 *******************************************************************************
 ENSEMBLE TYPE                =                                              NVE
 STEP NUMBER                  =                                               34
 TIME [fs]                    =                                         3.400000
 CONSERVED QUANTITY [hartree] =                               0.485826295988E+01

                                              INSTANTANEOUS             AVERAGES
 CPU TIME [s]                 =                        0.19                 0.23
 ENERGY DRIFT PER ATOM [K]    =          0.846604837058E-01  -0.965737633148E-04
 POTENTIAL ENERGY[hartree]    =          0.260047468199E+01   0.238160680429E+01
 KINETIC ENERGY [hartree]     =          0.225778827789E+01   0.247641392656E+01
 TEMPERATURE [K]              =                     528.700              579.895
 *******************************************************************************

 FOBSH| *** OFF-DIAGONAL GRADIENT CALCULATION
 FOBSH| Put former active state           2 in new active state           2
 RANDOM_NUMBER_HOPPING_PROBA  0.33097863659345467     
 FOBSH| ACTIVE STATE =            2

 ENERGY| Total FORCE_EVAL ( MIXED ) energy (a.u.):             2.604983060580355

 FOBSH| CASE1: no hop and no trivial crossing
 ENTER integrator.F
 STEP NUMBER                  =           35
 CPU TIME [s]                 =   0.15529873222112656       0.23196272115622238     

 *******************************************************************************
 ENSEMBLE TYPE                =                                              NVE
 STEP NUMBER                  =                                               35
 TIME [fs]                    =                                         3.500000
 CONSERVED QUANTITY [hartree] =                               0.485827034414E+01

                                              INSTANTANEOUS             AVERAGES
 CPU TIME [s]                 =                        0.16                 0.23
 ENERGY DRIFT PER ATOM [K]    =          0.872513288766E-01   0.239908059782E-02
 POTENTIAL ENERGY[hartree]    =          0.260498306058E+01   0.238798898304E+01
 KINETIC ENERGY [hartree]     =          0.225328728356E+01   0.247003887962E+01
 TEMPERATURE [K]              =                     527.646              578.402
 *******************************************************************************

 FOBSH| *** OFF-DIAGONAL GRADIENT CALCULATION
 FOBSH| Put former active state           2 in new active state           2
 RANDOM_NUMBER_HOPPING_PROBA  0.80940816163944496     
 FOBSH| ACTIVE STATE =            2

 ENERGY| Total FORCE_EVAL ( MIXED ) energy (a.u.):             2.606419143172218

 FOBSH| CASE1: no hop and no trivial crossing
 ENTER integrator.F
 STEP NUMBER                  =           36
 CPU TIME [s]                 =   0.11600452102720737       0.22874166004152752     

 *******************************************************************************
 ENSEMBLE TYPE                =                                              NVE
 STEP NUMBER                  =                                               36
 TIME [fs]                    =                                         3.600000
 CONSERVED QUANTITY [hartree] =                               0.485827481225E+01

                                              INSTANTANEOUS             AVERAGES
 CPU TIME [s]                 =                        0.12                 0.23
 ENERGY DRIFT PER ATOM [K]    =          0.888190148964E-01   0.479963432834E-02
 POTENTIAL ENERGY[hartree]    =          0.260641914317E+01   0.239405648749E+01
 KINETIC ENERGY [hartree]     =          0.225185566908E+01   0.246397823488E+01
 TEMPERATURE [K]              =                     527.311              576.983
 *******************************************************************************

 FOBSH| *** OFF-DIAGONAL GRADIENT CALCULATION
 FOBSH| Reordering: for state           1 old index was           2 with overlap  0.99787424238991418      and former  -6.5150599027921946E-002
 FOBSH| Reordering: for state           2 old index was           1 with overlap  0.99787424093930266      and former   6.5150112015286074E-002
 FOBSH| New map:            2           1           3           4           5           6           7           8
 FOBSH| Put former active state           2 in new active state           1
 RANDOM_NUMBER_HOPPING_PROBA  0.47443371654539679     
 FOBSH| ACTIVE STATE =            1

 ENERGY| Total FORCE_EVAL ( MIXED ) energy (a.u.):             2.604702987301820

 FOBSH| CASE1: no hop and no trivial crossing
 ENTER integrator.F
 STEP NUMBER                  =           37
 CPU TIME [s]                 =   0.14896641112864017       0.22658557223307110     

 *******************************************************************************
 ENSEMBLE TYPE                =                                              NVE
 STEP NUMBER                  =                                               37
 TIME [fs]                    =                                         3.700000
 CONSERVED QUANTITY [hartree] =                               0.485827623894E+01

                                              INSTANTANEOUS             AVERAGES
 CPU TIME [s]                 =                        0.15                 0.23
 ENERGY DRIFT PER ATOM [K]    =          0.893195845277E-01   0.708395730670E-02
 POTENTIAL ENERGY[hartree]    =          0.260470298730E+01   0.239974963613E+01
 KINETIC ENERGY [hartree]     =          0.225357325164E+01   0.245829161371E+01
 TEMPERATURE [K]              =                     527.713              575.652
 *******************************************************************************

 FOBSH| *** OFF-DIAGONAL GRADIENT CALCULATION
 FOBSH| Put former active state           1 in new active state           1
 RANDOM_NUMBER_HOPPING_PROBA  0.13247404935644061     
 FOBSH| ACTIVE STATE =            1

 ENERGY| Total FORCE_EVAL ( MIXED ) energy (a.u.):             2.599798682920989

 FOBSH| CASE1: no hop and no trivial crossing
 ENTER integrator.F
 STEP NUMBER                  =           38
 CPU TIME [s]                 =   0.12450617924332619       0.22389927241755148     

 *******************************************************************************
 ENSEMBLE TYPE                =                                              NVE
 STEP NUMBER                  =                                               38
 TIME [fs]                    =                                         3.800000
 CONSERVED QUANTITY [hartree] =                               0.485827559896E+01

                                              INSTANTANEOUS             AVERAGES
 CPU TIME [s]                 =                        0.12                 0.22
 ENERGY DRIFT PER ATOM [K]    =          0.890950388874E-01   0.924214366409E-02
 POTENTIAL ENERGY[hartree]    =          0.259979868292E+01   0.240501408473E+01
 KINETIC ENERGY [hartree]     =          0.225847691604E+01   0.245303333219E+01
 TEMPERATURE [K]              =                     528.862              574.420
 *******************************************************************************

 FOBSH| *** OFF-DIAGONAL GRADIENT CALCULATION
 FOBSH| Put former active state           1 in new active state           1
 RANDOM_NUMBER_HOPPING_PROBA  0.49222769201345745     
 FOBSH| ACTIVE STATE =            1

 ENERGY| Total FORCE_EVAL ( MIXED ) energy (a.u.):             2.591713211765303

 FOBSH| CASE1: no hop and no trivial crossing
 ENTER integrator.F
 STEP NUMBER                  =           39
 CPU TIME [s]                 =   0.11486079543828964       0.22110341403346787     

 *******************************************************************************
 ENSEMBLE TYPE                =                                              NVE
 STEP NUMBER                  =                                               39
 TIME [fs]                    =                                         3.900000
 CONSERVED QUANTITY [hartree] =                               0.485827223397E+01

                                              INSTANTANEOUS             AVERAGES
 CPU TIME [s]                 =                        0.11                 0.22
 ENERGY DRIFT PER ATOM [K]    =          0.879143965222E-01   0.112593809169E-01
 POTENTIAL ENERGY[hartree]    =          0.259171321177E+01   0.240980124184E+01
 KINETIC ENERGY [hartree]     =          0.226655902220E+01   0.244825193963E+01
 TEMPERATURE [K]              =                     530.754              573.301
 *******************************************************************************

 FOBSH| *** OFF-DIAGONAL GRADIENT CALCULATION
 FOBSH| Put former active state           1 in new active state           1
 RANDOM_NUMBER_HOPPING_PROBA  0.66895639620323910     
 FOBSH| ACTIVE STATE =            1

 ENERGY| Total FORCE_EVAL ( MIXED ) energy (a.u.):             2.580497569389672

 FOBSH| CASE1: no hop and no trivial crossing
 ENTER integrator.F
 STEP NUMBER                  =           40
 CPU TIME [s]                 =   0.16541039384901524       0.21971108852885657     

 *******************************************************************************
 ENSEMBLE TYPE                =                                              NVE
 STEP NUMBER                  =                                               40
 TIME [fs]                    =                                         4.000000
 CONSERVED QUANTITY [hartree] =                               0.485826617971E+01

                                              INSTANTANEOUS             AVERAGES
 CPU TIME [s]                 =                        0.17                 0.22
 ENERGY DRIFT PER ATOM [K]    =          0.857901962521E-01   0.131226513002E-01
 POTENTIAL ENERGY[hartree]    =          0.258049756939E+01   0.241406865003E+01
 KINETIC ENERGY [hartree]     =          0.227776861032E+01   0.244398985640E+01
 TEMPERATURE [K]              =                     533.379              572.303
 *******************************************************************************

 FOBSH| *** OFF-DIAGONAL GRADIENT CALCULATION
 FOBSH| Put former active state           1 in new active state           1
 RANDOM_NUMBER_HOPPING_PROBA  0.86101872639076216     
 FOBSH| ACTIVE STATE =            1

 ENERGY| Total FORCE_EVAL ( MIXED ) energy (a.u.):             2.566245943455735

 FOBSH| CASE1: no hop and no trivial crossing
 ENTER integrator.F
 STEP NUMBER                  =           41
 CPU TIME [s]                 =   0.10423910245299339       0.21689469862456720     

 *******************************************************************************
 ENSEMBLE TYPE                =                                              NVE
 STEP NUMBER                  =                                               41
 TIME [fs]                    =                                         4.100000
 CONSERVED QUANTITY [hartree] =                               0.485825750102E+01

                                              INSTANTANEOUS             AVERAGES
 CPU TIME [s]                 =                        0.10                 0.22
 ENERGY DRIFT PER ATOM [K]    =          0.827451849253E-01   0.148207618765E-01
 POTENTIAL ENERGY[hartree]    =          0.256624594346E+01   0.241778029133E+01
 KINETIC ENERGY [hartree]     =          0.229201155757E+01   0.244028306862E+01
 TEMPERATURE [K]              =                     536.714              571.435
 *******************************************************************************

 FOBSH| *** OFF-DIAGONAL GRADIENT CALCULATION
 FOBSH! Reorgering: for state           3  we stay in with overlap  0.69216212810749056       instead of goind to            4 with overlap -0.72141281286440451     
 FOBSH! Reorgering: for state           4  we stay in with overlap -0.69197747128389497       instead of goind to            3 with overlap -0.72169342751036869     
 FOBSH| New map:            1           2           0           0           5           6           7           8
 FOBSH! New map again:           1           2           0           0           5           6           7           8
 FOBSH| Put former active state           1 in new active state           1
 RANDOM_NUMBER_HOPPING_PROBA  0.82887674016094826     
 FOBSH| ACTIVE STATE =            1

 ENERGY| Total FORCE_EVAL ( MIXED ) energy (a.u.):             2.549094678477281

 FOBSH| CASE1: no hop and no trivial crossing
 ENTER integrator.F
 STEP NUMBER                  =           42
 CPU TIME [s]                 =   0.13294194824993610       0.21489582361564741     

 *******************************************************************************
 ENSEMBLE TYPE                =                                              NVE
 STEP NUMBER                  =                                               42
 TIME [fs]                    =                                         4.200000
 CONSERVED QUANTITY [hartree] =                               0.485824629859E+01

                                              INSTANTANEOUS             AVERAGES
 CPU TIME [s]                 =                        0.13                 0.21
 ENERGY DRIFT PER ATOM [K]    =          0.788146925294E-01   0.163444268920E-01
 POTENTIAL ENERGY[hartree]    =          0.254909467848E+01   0.242090682436E+01
 KINETIC ENERGY [hartree]     =          0.230915162012E+01   0.243716089127E+01
 TEMPERATURE [K]              =                     540.728              570.703
 *******************************************************************************

 FOBSH| *** OFF-DIAGONAL GRADIENT CALCULATION
 FOBSH| New map:            1           2           0           0           5           6           7           8
 FOBSH! New map again:           1           2           0           0           5           6           7           8
 FOBSH| Put former active state           1 in new active state           1
 RANDOM_NUMBER_HOPPING_PROBA  0.65660685430612087     
 FOBSH| ACTIVE STATE =            1

 ENERGY| Total FORCE_EVAL ( MIXED ) energy (a.u.):             2.529220644448246

 FOBSH| CASE1: no hop and no trivial crossing
 ENTER integrator.F
 STEP NUMBER                  =           43
 CPU TIME [s]                 =    9.5898391678929329E-002  0.21212844147758420     

 *******************************************************************************
 ENSEMBLE TYPE                =                                              NVE
 STEP NUMBER                  =                                               43
 TIME [fs]                    =                                         4.300000
 CONSERVED QUANTITY [hartree] =                               0.485823271257E+01

                                              INSTANTANEOUS             AVERAGES
 CPU TIME [s]                 =                        0.10                 0.21
 ENERGY DRIFT PER ATOM [K]    =          0.740478917737E-01   0.176863679358E-01
 POTENTIAL ENERGY[hartree]    =          0.252922064445E+01   0.242342575041E+01
 KINETIC ENERGY [hartree]     =          0.232901206813E+01   0.243464580236E+01
 TEMPERATURE [K]              =                     545.379              570.115
 *******************************************************************************

 FOBSH| *** OFF-DIAGONAL GRADIENT CALCULATION
 FOBSH| Put former active state           1 in new active state           1
 RANDOM_NUMBER_HOPPING_PROBA  0.14303911750953097     
 FOBSH| ACTIVE STATE =            1

 ENERGY| Total FORCE_EVAL ( MIXED ) energy (a.u.):             2.506838979174046

 FOBSH| CASE1: no hop and no trivial crossing
 ENTER integrator.F
 STEP NUMBER                  =           44
 CPU TIME [s]                 =    9.5370257273316383E-002  0.20947484638203268     

 *******************************************************************************
 ENSEMBLE TYPE                =                                              NVE
 STEP NUMBER                  =                                               44
 TIME [fs]                    =                                         4.400000
 CONSERVED QUANTITY [hartree] =                               0.485821690508E+01

                                              INSTANTANEOUS             AVERAGES
 CPU TIME [s]                 =                        0.10                 0.21
 ENERGY DRIFT PER ATOM [K]    =          0.685016621068E-01   0.188412609851E-01
 POTENTIAL ENERGY[hartree]    =          0.250683897917E+01   0.242532150561E+01
 KINETIC ENERGY [hartree]     =          0.235137792590E+01   0.243275335063E+01
 TEMPERATURE [K]              =                     550.616              569.671
 *******************************************************************************

 FOBSH| *** OFF-DIAGONAL GRADIENT CALCULATION
 FOBSH| Put former active state           1 in new active state           1
 RANDOM_NUMBER_HOPPING_PROBA  0.80954269957376690     
 FOBSH| ACTIVE STATE =            1

 ENERGY| Total FORCE_EVAL ( MIXED ) energy (a.u.):             2.482200427620062

 FOBSH| CASE1: no hop and no trivial crossing
 ENTER integrator.F
 STEP NUMBER                  =           45
 CPU TIME [s]                 =    9.1411206871271133E-002  0.20685120994846018     

 *******************************************************************************
 ENSEMBLE TYPE                =                                              NVE
 STEP NUMBER                  =                                               45
 TIME [fs]                    =                                         4.500000
 CONSERVED QUANTITY [hartree] =                               0.485819907824E+01

                                              INSTANTANEOUS             AVERAGES
 CPU TIME [s]                 =                        0.09                 0.21
 ENERGY DRIFT PER ATOM [K]    =          0.622469259222E-01   0.198058313170E-01
 POTENTIAL ENERGY[hartree]    =          0.248220042762E+01   0.242658548165E+01
 KINETIC ENERGY [hartree]     =          0.237599865062E+01   0.243149213507E+01
 TEMPERATURE [K]              =                     556.381              569.376
 *******************************************************************************

 FOBSH| *** OFF-DIAGONAL GRADIENT CALCULATION
 FOBSH| Put former active state           1 in new active state           1
 RANDOM_NUMBER_HOPPING_PROBA  0.66740105203805000     
 FOBSH| ACTIVE STATE =            1

 ENERGY| Total FORCE_EVAL ( MIXED ) energy (a.u.):             2.455588237743604

 FOBSH| CASE1: no hop and no trivial crossing
 ENTER integrator.F
 STEP NUMBER                  =           46
 CPU TIME [s]                 =   0.11086222529411316       0.20476449289075699     

 *******************************************************************************
 ENSEMBLE TYPE                =                                              NVE
 STEP NUMBER                  =                                               46
 TIME [fs]                    =                                         4.600000
 CONSERVED QUANTITY [hartree] =                               0.485817946637E+01

                                              INSTANTANEOUS             AVERAGES
 CPU TIME [s]                 =                        0.11                 0.20
 ENERGY DRIFT PER ATOM [K]    =          0.553658910208E-01   0.205788760932E-01
 POTENTIAL ENERGY[hartree]    =          0.245558823774E+01   0.242721597635E+01
 KINETIC ENERGY [hartree]     =          0.240259122863E+01   0.243086385450E+01
 TEMPERATURE [K]              =                     562.608              569.229
 *******************************************************************************

 FOBSH| *** OFF-DIAGONAL GRADIENT CALCULATION
 FOBSH| Put former active state           1 in new active state           1
 RANDOM_NUMBER_HOPPING_PROBA  0.70255075677543821     
 FOBSH| ACTIVE STATE =            1

 ENERGY| Total FORCE_EVAL ( MIXED ) energy (a.u.):             2.427314510024634

 FOBSH| CASE1: no hop and no trivial crossing
 ENTER integrator.F
 STEP NUMBER                  =           47
 CPU TIME [s]                 =   0.11424478702247143       0.20283854170207005     

 *******************************************************************************
 ENSEMBLE TYPE                =                                              NVE
 STEP NUMBER                  =                                               47
 TIME [fs]                    =                                         4.700000
 CONSERVED QUANTITY [hartree] =                               0.485815830353E+01

                                              INSTANTANEOUS             AVERAGES
 CPU TIME [s]                 =                        0.11                 0.20
 ENERGY DRIFT PER ATOM [K]    =          0.479406795703E-01   0.211610421246E-01
 POTENTIAL ENERGY[hartree]    =          0.242731451002E+01   0.242721807281E+01
 KINETIC ENERGY [hartree]     =          0.243084379350E+01   0.243086342767E+01
 TEMPERATURE [K]              =                     569.224              569.229
 *******************************************************************************

 FOBSH| *** OFF-DIAGONAL GRADIENT CALCULATION
 FOBSH| Put former active state           1 in new active state           1
 RANDOM_NUMBER_HOPPING_PROBA  0.55743071458898230     
 FOBSH| ACTIVE STATE =            1

 ENERGY| Total FORCE_EVAL ( MIXED ) energy (a.u.):             2.397716266933230

 FOBSH| CASE1: no hop and no trivial crossing
 ENTER integrator.F
 STEP NUMBER                  =           48
 CPU TIME [s]                 =    8.8415624573826790E-002  0.20045473092856497     

 *******************************************************************************
 ENSEMBLE TYPE                =                                              NVE
 STEP NUMBER                  =                                               48
 TIME [fs]                    =                                         4.800000
 CONSERVED QUANTITY [hartree] =                               0.485813587178E+01

                                              INSTANTANEOUS             AVERAGES
 CPU TIME [s]                 =                        0.09                 0.20
[...]
 *******************************************************************************

 FOBSH| *** OFF-DIAGONAL GRADIENT CALCULATION
 FOBSH| Put former active state           2 in new active state           2
 RANDOM_NUMBER_HOPPING_PROBA  0.55064399343308779     
 FOBSH| ACTIVE STATE =            2

 ENERGY| Total FORCE_EVAL ( MIXED ) energy (a.u.):             2.517983317992503

 FOBSH| CASE1: no hop and no trivial crossing
 ENTER integrator.F
 STEP NUMBER                  =          191
 CPU TIME [s]                 =    7.5833374634385109E-002  0.14603318111161601     

 *******************************************************************************
 ENSEMBLE TYPE                =                                              NVE
 STEP NUMBER                  =                                              191
 TIME [fs]                    =                                        19.100000
 CONSERVED QUANTITY [hartree] =                               0.485814854092E+01

                                              INSTANTANEOUS             AVERAGES
 CPU TIME [s]                 =                        0.08                 0.15
 ENERGY DRIFT PER ATOM [K]    =          0.445153634088E-01   0.168123257884E-01
 POTENTIAL ENERGY[hartree]    =          0.251798331799E+01   0.239117905256E+01
 KINETIC ENERGY [hartree]     =          0.234016522292E+01   0.246689041350E+01
 TEMPERATURE [K]              =                     547.990              577.665
 *******************************************************************************

 FOBSH| *** OFF-DIAGONAL GRADIENT CALCULATION
 FOBSH| Put former active state           2 in new active state           2
 RANDOM_NUMBER_HOPPING_PROBA  0.67340245960925516     
 FOBSH| ACTIVE STATE =            2

 ENERGY| Total FORCE_EVAL ( MIXED ) energy (a.u.):             2.548291620796360

 FOBSH| CASE1: no hop and no trivial crossing
 ENTER integrator.F
 STEP NUMBER                  =          192
 CPU TIME [s]                 =    7.5989013537764549E-002  0.14566836773883551     

 *******************************************************************************
 ENSEMBLE TYPE                =                                              NVE
 STEP NUMBER                  =                                              192
 TIME [fs]                    =                                        19.200000
 CONSERVED QUANTITY [hartree] =                               0.485817233912E+01

                                              INSTANTANEOUS             AVERAGES
 CPU TIME [s]                 =                        0.08                 0.15
 ENERGY DRIFT PER ATOM [K]    =          0.528652197044E-01   0.170001012776E-01
 POTENTIAL ENERGY[hartree]    =          0.254829162080E+01   0.239199734718E+01
 KINETIC ENERGY [hartree]     =          0.230988071833E+01   0.246607265467E+01
 TEMPERATURE [K]              =                     540.899              577.474
 *******************************************************************************

 FOBSH| *** OFF-DIAGONAL GRADIENT CALCULATION
 FOBSH| Put former active state           2 in new active state           2
 RANDOM_NUMBER_HOPPING_PROBA  0.38689423247100796     
 FOBSH| ACTIVE STATE =            2

 ENERGY| Total FORCE_EVAL ( MIXED ) energy (a.u.):             2.577713472365715

 FOBSH| CASE1: no hop and no trivial crossing
 ENTER integrator.F
 STEP NUMBER                  =          193
 CPU TIME [s]                 =    7.5498947873711586E-002  0.14530479561518203     

 *******************************************************************************
 ENSEMBLE TYPE                =                                              NVE
 STEP NUMBER                  =                                              193
 TIME [fs]                    =                                        19.300000
 CONSERVED QUANTITY [hartree] =                               0.485819561042E+01

                                              INSTANTANEOUS             AVERAGES
 CPU TIME [s]                 =                        0.08                 0.15
 ENERGY DRIFT PER ATOM [K]    =          0.610302032716E-01   0.172282365211E-01
 POTENTIAL ENERGY[hartree]    =          0.257771347237E+01   0.239295960690E+01
 KINETIC ENERGY [hartree]     =          0.228048213805E+01   0.246511104577E+01
 TEMPERATURE [K]              =                     534.014              577.248
 *******************************************************************************

 FOBSH| *** OFF-DIAGONAL GRADIENT CALCULATION
 FOBSH| Put former active state           2 in new active state           2
 RANDOM_NUMBER_HOPPING_PROBA  0.18591696202539099     
 FOBSH| ACTIVE STATE =            2

 ENERGY| Total FORCE_EVAL ( MIXED ) energy (a.u.):             2.605880898727298

 FOBSH| CASE1: no hop and no trivial crossing
 ENTER integrator.F
 STEP NUMBER                  =          194
 CPU TIME [s]                 =    7.5885919854044914E-002  0.14494696635868132     

 *******************************************************************************
 ENSEMBLE TYPE                =                                              NVE
 STEP NUMBER                  =                                              194
 TIME [fs]                    =                                        19.400000
 CONSERVED QUANTITY [hartree] =                               0.485821806792E+01

                                              INSTANTANEOUS             AVERAGES
 CPU TIME [s]                 =                        0.08                 0.14
 ENERGY DRIFT PER ATOM [K]    =          0.689096573941E-01   0.174946355977E-01
 POTENTIAL ENERGY[hartree]    =          0.260588089873E+01   0.239405713933E+01
 KINETIC ENERGY [hartree]     =          0.225233716919E+01   0.246401427321E+01
 TEMPERATURE [K]              =                     527.424              576.992
 *******************************************************************************

 FOBSH| *** OFF-DIAGONAL GRADIENT CALCULATION
 FOBSH| Put former active state           2 in new active state           2
 RANDOM_NUMBER_HOPPING_PROBA  0.67934094329898165     
 FOBSH| ACTIVE STATE =            2

 ENERGY| Total FORCE_EVAL ( MIXED ) energy (a.u.):             2.632438932314413

 FOBSH| CASE1: no hop and no trivial crossing
 ENTER integrator.F
 STEP NUMBER                  =          195
 CPU TIME [s]                 =    7.5261218473315239E-002  0.14458960354901276     

 *******************************************************************************
 ENSEMBLE TYPE                =                                              NVE
 STEP NUMBER                  =                                              195
 TIME [fs]                    =                                        19.500000
 CONSERVED QUANTITY [hartree] =                               0.485823939898E+01

                                              INSTANTANEOUS             AVERAGES
 CPU TIME [s]                 =                        0.08                 0.14
 ENERGY DRIFT PER ATOM [K]    =          0.763938875976E-01   0.177966830439E-01
 POTENTIAL ENERGY[hartree]    =          0.263243893231E+01   0.239527961006E+01
 KINETIC ENERGY [hartree]     =          0.222580046666E+01   0.246279266395E+01
 TEMPERATURE [K]              =                     521.210              576.706
 *******************************************************************************

 FOBSH| *** OFF-DIAGONAL GRADIENT CALCULATION
 FOBSH| Put former active state           2 in new active state           2
 RANDOM_NUMBER_HOPPING_PROBA  0.77879370283081439     
 FOBSH| ACTIVE STATE =            2

 ENERGY| Total FORCE_EVAL ( MIXED ) energy (a.u.):             2.657050447072578

 FOBSH| CASE1: no hop and no trivial crossing
 ENTER integrator.F
 STEP NUMBER                  =          196
 CPU TIME [s]                 =    7.5894659385085106E-002  0.14423911914001314     

 *******************************************************************************
 ENSEMBLE TYPE                =                                              NVE
 STEP NUMBER                  =                                              196
 TIME [fs]                    =                                        19.600000
 CONSERVED QUANTITY [hartree] =                               0.485825933011E+01

                                              INSTANTANEOUS             AVERAGES
 CPU TIME [s]                 =                        0.08                 0.14
 ENERGY DRIFT PER ATOM [K]    =          0.833869410329E-01   0.181313272173E-01
 POTENTIAL ENERGY[hartree]    =          0.265705044707E+01   0.239661517556E+01
 KINETIC ENERGY [hartree]     =          0.220120888304E+01   0.246145805282E+01
 TEMPERATURE [K]              =                     515.451              576.393
 *******************************************************************************

 FOBSH| *** OFF-DIAGONAL GRADIENT CALCULATION
 FOBSH| Put former active state           2 in new active state           2
 RANDOM_NUMBER_HOPPING_PROBA   9.1225840145483336E-002
 FOBSH| ACTIVE STATE =            2

 ENERGY| Total FORCE_EVAL ( MIXED ) energy (a.u.):             2.679400507130379

 FOBSH| CASE1: no hop and no trivial crossing
 ENTER integrator.F
 STEP NUMBER                  =          197
 CPU TIME [s]                 =    7.5408494099974632E-002  0.14388972510427689     

 *******************************************************************************
 ENSEMBLE TYPE                =                                              NVE
 STEP NUMBER                  =                                              197
 TIME [fs]                    =                                        19.700000
 CONSERVED QUANTITY [hartree] =                               0.485827761740E+01

                                              INSTANTANEOUS             AVERAGES
 CPU TIME [s]                 =                        0.08                 0.14
 ENERGY DRIFT PER ATOM [K]    =          0.898032303859E-01   0.184951439846E-01
 POTENTIAL ENERGY[hartree]    =          0.267940050713E+01   0.239805063409E+01
 KINETIC ENERGY [hartree]     =          0.217887711027E+01   0.246002363179E+01
 TEMPERATURE [K]              =                     510.222              576.057
 *******************************************************************************

 FOBSH| *** OFF-DIAGONAL GRADIENT CALCULATION
 FOBSH| Put former active state           2 in new active state           2
 RANDOM_NUMBER_HOPPING_PROBA  0.31757186214787592     
 FOBSH| ACTIVE STATE =            2

 ENERGY| Total FORCE_EVAL ( MIXED ) energy (a.u.):             2.699200255541103

 FOBSH| CASE1: no hop and no trivial crossing
 ENTER integrator.F
 STEP NUMBER                  =          198
 CPU TIME [s]                 =    7.5887991115450859E-002  0.14354628200332323     

 *******************************************************************************
 ENSEMBLE TYPE                =                                              NVE
 STEP NUMBER                  =                                              198
 TIME [fs]                    =                                        19.800000
 CONSERVED QUANTITY [hartree] =                               0.485829403543E+01

                                              INSTANTANEOUS             AVERAGES
 CPU TIME [s]                 =                        0.08                 0.14
 ENERGY DRIFT PER ATOM [K]    =          0.955636727966E-01   0.188843789786E-01
 POTENTIAL ENERGY[hartree]    =          0.269920025554E+01   0.239957159178E+01
 KINETIC ENERGY [hartree]     =          0.215909377989E+01   0.245850378406E+01
 TEMPERATURE [K]              =                     505.589              575.701
 *******************************************************************************

 FOBSH| *** OFF-DIAGONAL GRADIENT CALCULATION
 FOBSH| Put former active state           2 in new active state           2
 RANDOM_NUMBER_HOPPING_PROBA  0.93838905524111438     
 FOBSH| ACTIVE STATE =            2

 ENERGY| Total FORCE_EVAL ( MIXED ) energy (a.u.):             2.716190533614695

 FOBSH| CASE1: no hop and no trivial crossing
 ENTER integrator.F
 STEP NUMBER                  =          199
 CPU TIME [s]                 =    7.5669934973120689E-002  0.14320519483231717     

 *******************************************************************************
 ENSEMBLE TYPE                =                                              NVE
 STEP NUMBER                  =                                              199
 TIME [fs]                    =                                        19.900000
 CONSERVED QUANTITY [hartree] =                               0.485830838090E+01

                                              INSTANTANEOUS             AVERAGES
 CPU TIME [s]                 =                        0.08                 0.14
 ENERGY DRIFT PER ATOM [K]    =          0.100596936678E+00   0.192949948465E-01
 POTENTIAL ENERGY[hartree]    =          0.271619053361E+01   0.240116264174E+01
 KINETIC ENERGY [hartree]     =          0.214211784729E+01   0.245691390498E+01
 TEMPERATURE [K]              =                     501.614              575.329
 *******************************************************************************

 FOBSH| *** OFF-DIAGONAL GRADIENT CALCULATION
 FOBSH| Put former active state           2 in new active state           2
 RANDOM_NUMBER_HOPPING_PROBA  0.38739698207438283     
 FOBSH| ACTIVE STATE =            2

 ENERGY| Total FORCE_EVAL ( MIXED ) energy (a.u.):             2.730145137679344

 FOBSH| CASE1: no hop and no trivial crossing
 ENTER integrator.F
 STEP NUMBER                  =          200
 CPU TIME [s]                 =    7.5969602912664413E-002  0.14286901687271891     

 *******************************************************************************
 ENSEMBLE TYPE                =                                              NVE
 STEP NUMBER                  =                                              200
 TIME [fs]                    =                                        20.000000
 CONSERVED QUANTITY [hartree] =                               0.485832047355E+01

                                              INSTANTANEOUS             AVERAGES
 CPU TIME [s]                 =                        0.08                 0.14
 ENERGY DRIFT PER ATOM [K]    =          0.104839770324E+00   0.197227187239E-01
 POTENTIAL ENERGY[hartree]    =          0.273014513768E+01   0.240280755422E+01
 KINETIC ENERGY [hartree]     =          0.212817533587E+01   0.245527021213E+01
 TEMPERATURE [K]              =                     498.349              574.944
 *******************************************************************************


 -------------------------------------------------------------------------------
 -                                                                             -
 -                                DBCSR STATISTICS                             -
 -                                                                             -
 -------------------------------------------------------------------------------
 COUNTER                                    TOTAL       BLAS       SMM       ACC
 flops total                                    0       0.0%      0.0%      0.0%
 flops max/rank                                 0       0.0%      0.0%      0.0%
 matmuls inhomo. stacks                         0       0.0%      0.0%      0.0%
 matmuls total                                  0       0.0%      0.0%      0.0%
 number of processed stacks                     0       0.0%      0.0%      0.0%
 average stack size                                     0.0       0.0       0.0
 marketing flops                     0.000000E+00
 -------------------------------------------------------------------------------

 MEMORY| Estimated peak process memory [MiB]                                 104

 -------------------------------------------------------------------------------
 -                                                                             -
 -                           R E F E R E N C E S                               -
 -                                                                             -
 -------------------------------------------------------------------------------
 
 CP2K version 4.0 (Development Version), the CP2K developers group (2015).
 CP2K is freely available from https://www.cp2k.org/ .

 Borstnik, U; VandeVondele, J; Weber, V; Hutter, J. 
 PARALLEL COMPUTING, 40 (5-6), 47-58 (2014). 
 Sparse matrix multiplication: The distributed block-compressed sparse
 row library.
 http://dx.doi.org/10.1016/j.parco.2014.03.012


 Hutter, J; Iannuzzi, M; Schiffmann, F; VandeVondele, J. 
 WILEY INTERDISCIPLINARY REVIEWS-COMPUTATIONAL MOLECULAR SCIENCE, 4 (1), 15-25 (2014). 
 CP2K: atomistic simulations of condensed matter systems.
 http://dx.doi.org/10.1002/wcms.1159


 Frigo, M; Johnson, SG. 
 PROCEEDINGS OF THE IEEE, 93 (2), 216-231 (2005). 
 The design and implementation of FFTW3.
 http://dx.doi.org/10.1109/JPROC.2004.840301


 -------------------------------------------------------------------------------
 -                                                                             -
 -                                T I M I N G                                  -
 -                                                                             -
 -------------------------------------------------------------------------------
 SUBROUTINE                       CALLS  ASD         SELF TIME        TOTAL TIME
                                MAXIMUM       AVERAGE  MAXIMUM  AVERAGE  MAXIMUM
 CP2K                                 1  1.0    0.024    0.024   39.265   39.265
 qs_mol_dyn_low                       1  2.0    0.218    0.218   28.626   28.626
 velocity_verlet                    200  3.0   20.039   20.039   26.994   26.994
 topology_control                     3  4.0    0.005    0.005    9.786    9.786
 connectivity_control                 3  5.0    0.042    0.042    9.407    9.407
 read_topology_psf                  150  6.0    4.237    4.237    9.348    9.348
 fist_create_force_env                2  2.0    0.000    0.000    7.583    7.583
 fist_init                            2  3.0    0.002    0.002    7.583    7.583
 fist_calc_energy_force             414  4.0    0.092    0.092    7.266    7.266
 parser_read_line                 12762  7.2    0.284    0.284    5.990    5.990
 parser_read_line_low               171  7.9    5.704    5.704    5.706    5.706
 force_nonbond                      207  5.0    5.606    5.606    5.606    5.606
 mixed_create_force_env               1  2.0    0.000    0.000    3.004    3.004
 mixed_init                           1  3.0    0.000    0.000    3.003    3.003
 md_output                          200  3.0    0.001    0.001    1.065    1.065
 md_write_output                    201  4.0    0.995    0.995    1.029    1.029
 force_intra_control                414  5.0    1.003    1.003    1.003    1.003
 force_field_control                  2  4.0    0.000    0.000    0.797    0.797
 read_force_field_charmm              2  5.0    0.110    0.110    0.793    0.793
 -------------------------------------------------------------------------------

 The number of warnings for this run is : 1
 
 -------------------------------------------------------------------------------
  **** **** ******  **  PROGRAM ENDED AT                 2021-04-29 14:24:09.555
 ***** ** ***  *** **   PROGRAM RAN ON                   bulstake.phys.ucl.ac.uk
 **    ****   ******    PROGRAM RAN BY                                 sgiannini
 ***** **    ** ** **   PROGRAM PROCESS ID                                 12956
  **** **  *******  **  PROGRAM STOPPED IN /scratch/sgiannini/REG_TEST_MERGING/3
                                           7-071a0540f1_code_extension_V3_ADJ/ru
                                           n-fssh-0
