#     Step Nr.          Time[fs]        Kin.[a.u.]          Temp[K]            Pot.[a.u.]        Cons Qty[a.u.]        UsedTime[s]
         0            0.000000         2.412123729       564.840579357         2.446232237         4.858355966         0.000000000
         1            0.100000         2.440711635       571.534932970         2.417622463         4.858334098         0.570934169
         2            0.200000         2.467926336       577.907726848         2.390387005         4.858313341         0.056896033
         3            0.300000         2.493438353       583.881807868         2.364855785         4.858294138         0.071597846
         4            0.400000         2.516943058       589.385842068         2.341333707         4.858276765         0.057226643
         5            0.500000         2.538165177       594.355369017         2.320096268         4.858261445         0.057669476
         6            0.600000         2.556862385       598.733644393         2.301385974         4.858248359         0.057040457
         7            0.700000         2.572828413       602.472366606         2.285409278         4.858237692         0.056652978
         8            0.800000         2.585895641       605.532284475         2.272333915         4.858229557         0.070792139
         9            0.900000         2.595937192       607.883687743         2.262286871         4.858224063         0.057954879
        10            1.000000         2.602868479       609.506768618         2.255352786         4.858221265         0.070403699
        11            1.100000         2.606648216       610.391859561         2.251573003         4.858221219         0.162845861
        12            1.200000         2.607278790       610.539519433         2.250945101         4.858223891         0.070693076
        13            1.300000         2.604806047       609.960483835         2.253423186         4.858229233         0.060058067
        14            1.400000         2.599320496       608.675946970         2.258916662         4.858237158         0.070707796
        15            1.500000         2.590946812       606.715103642         2.267300752         4.858247564         0.057422580
        16            1.600000         2.579854755       604.117706311         2.278405532         4.858260287         0.069860311
        17            1.700000         2.566251326       600.932227524         2.292023828         4.858275153         0.058296105
        18            1.800000         2.550377889       597.215187287         2.307914069         4.858291958         0.069931289
        19            1.900000         2.532506901       593.030385654         2.325803575         4.858310476         0.092059258
        20            2.000000         2.512938213       588.448038046         2.345392229         4.858330441         0.099004947
        21            2.100000         2.491994972       583.543815196         2.366356629         4.858351601         0.184278378
        22            2.200000         2.470019169       578.397800111         2.388354494         4.858373663         0.057725184
        23            2.300000         2.447367028       573.093408740         2.411029297         4.858396325         0.071097216
        24            2.400000         2.424404239       567.716273507         2.434015020         4.858419259         0.056622060
        25            2.500000         2.401500978       562.353078141         2.456941167         4.858442145         0.070571797
        26            2.600000         2.379026849       557.090371148         2.479437827         4.858464676         0.058154572
        27            2.700000         2.357345873       552.013394919         2.501140685         4.858486558         0.056973716
        28            2.800000         2.336811645       547.204949558         2.521695841         4.858507487         0.070413033
        29            2.900000         2.317762527       542.744268458         2.540764649         4.858527176         0.057316193
        30            3.000000         2.300517047       538.705940259         2.558028316         4.858545363         0.070159756
        31            3.100000         2.285369584       535.158899252         2.573192220         4.858561803         0.170500914
        32            3.200000         2.272586283       532.165467735         2.585989962         4.858576244         0.056840712
        33            3.300000         2.262401399       529.780500605         2.596187100         4.858588498         0.069829101
        34            3.400000         2.255014119       528.050641133         2.603584263         4.858598383         0.057820631
        35            3.500000         2.250585781       527.013668931         2.608019977         4.858605758         0.069822608
        36            3.600000         2.249237581       526.697964599         2.609372938         4.858610520         0.057022620
        37            3.700000         2.251048861       527.122107071         2.607563721         4.858612582         0.057118244
        38            3.800000         2.256055915       528.294595674         2.602556017         4.858611932         0.069177361
        39            3.900000         2.264251345       530.213697641         2.594357202         4.858608547         0.057403348
        40            4.000000         2.275584007       532.867436748         2.583018467         4.858602473         0.057089023
        41            4.100000         2.289959519       536.233712194         2.568634255         4.858593774         0.175953040
        42            4.200000         2.307241325       540.280546581         2.551341222         4.858582547         0.057088332
        43            4.300000         2.327252328       544.966469711         2.531316603         4.858568931         0.076371575
        44            4.400000         2.349777114       550.241038893         2.508775973         4.858553088         0.057193732
        45            4.500000         2.374564617       556.045462322         2.483970598         4.858535215         0.064816292
        46            4.600000         2.401331189       562.313319099         2.457184356         4.858515546         0.057164725
        47            4.700000         2.429764181       568.971396880         2.428730131         4.858494312         0.056875676
        48            4.800000         2.459525829       575.940602736         2.398945951         4.858471780         0.070240563
        49            4.900000         2.490257338       583.136918133         2.368190871         4.858448209         0.060203288
        50            5.000000         2.521583112       590.472391086         2.336840719         4.858423831         0.074459054
        51            5.100000         2.553114651       597.856047491         2.305284152         4.858398803         0.204163795
        52            5.200000         2.584453126       605.194494477         2.273919864         4.858372990         0.060154203
        53            5.300000         2.615188099       612.391621091         2.243157522         4.858345621         0.073508315
        54            5.400000         2.645553588       619.502226735         2.212764236         4.858317824         0.109028632
        55            5.500000         2.673891462       626.138031209         2.184400368         4.858291830         0.074678997
        56            5.600000         2.700599726       632.392234057         2.157666262         4.858265988         0.059100993
        57            5.700000         2.725287972       638.173414823         2.132956018         4.858243990         0.072331188
        58            5.800000         2.747607303       643.399873035         2.110617428         4.858224731         0.073722208
        59            5.900000         2.767249696       647.999479670         2.090958085         4.858207780         0.071879994
        60            6.000000         2.783943240       651.908562288         2.074249893         4.858193133         0.061849395
        61            6.100000         2.797452392       655.071964534         2.060728530         4.858180922         0.228050645
        62            6.200000         2.807579913       657.443498991         2.050591361         4.858171274         0.075357595
        63            6.300000         2.814169019       658.986452425         2.043995267         4.858164286         0.058645051
        64            6.400000         2.817105316       659.674037305         2.041054741         4.858160058         0.072305869
        65            6.500000         2.816318258       659.489734089         2.041840380         4.858158638         0.057240918
        66            6.600000         2.811782086       658.427510809         2.046377972         4.858160058         0.073389191
        67            6.700000         2.803516268       656.491926045         2.054648042         4.858164310         0.289822681
        68            6.800000         2.791585340       653.698092527         2.066586007         4.858171347         0.058272144
        69            6.900000         2.776098202       650.071510708         2.082082896         4.858181098         0.074622944
        70            7.000000         2.757206863       645.647776343         2.100986567         4.858193430         0.076232590
        71            7.100000         2.735104699       640.472171463         2.123103521         4.858208219         0.185299663
        72            7.200000         2.710024104       634.599115553         2.148201205         4.858225309         0.074104751
        73            7.300000         2.682233661       628.091501533         2.176010796         4.858244457         0.087676153
        74            7.400000         2.652034945       621.019948902         2.206230492         4.858265438         0.117712613
        75            7.500000         2.619758912       613.461956293         2.238529107         4.858288019         0.086078031
        76            7.600000         2.585762280       605.501055529         2.272549800         4.858312080         0.059809953
        77            7.700000         2.550425842       597.226416160         2.307912088         4.858337930         0.068253934
        78            7.800000         2.514120215       588.724824274         2.344242561         4.858362776         0.124206830
        79            7.900000         2.477282378       580.098606414         2.381106399         4.858388778         0.056499293
        80            8.000000         2.440309344       571.440729683         2.418105514         4.858414858         0.057449887
        81            8.100000         2.403614038       562.847887740         2.454826691         4.858440729         0.205885364
        82            8.200000         2.367605806       554.415935994         2.490860260         4.858466066         0.060436280
        83            8.300000         2.332685378       546.238712589         2.525805154         4.858490532         0.071208570
        84            8.400000         2.299239927       538.406880487         2.559273918         4.858513844         0.075498806
        85            8.500000         2.267655132       531.010753324         2.590880645         4.858535777         0.113503873
        86            8.600000         2.238242736       524.123330918         2.620312579         4.858555315         0.069833996
        87            8.700000         2.211347110       517.825254079         2.647226346         4.858573456         0.058333766
        88            8.800000         2.187254078       512.183452957         2.671335478         4.858589556         0.056352643
        89            8.900000         2.166217986       507.257487553         2.692385365         4.858603352         0.068566300
        90            9.000000         2.148456614       503.098354306         2.710158036         4.858614650         0.058682444
        91            9.100000         2.134148093       499.747766256         2.724475229         4.858623322         0.162102634
        92            9.200000         2.123428687       497.237631488         2.735200587         4.858629274         0.072428415
        93            9.300000         2.116391184       495.589678011         2.742241236         4.858632419         0.058474557
        94            9.400000         2.113083925       494.815226156         2.745548813         4.858632738         0.073289212
        95            9.500000         2.113510286       494.915066007         2.745119950         4.858630237         0.074018262
        96            9.600000         2.117628751       495.879475956         2.740996199         4.858624951         0.056031136
        97            9.700000         2.125353555       497.688372692         2.733263406         4.858616961         0.056698421
        98            9.800000         2.136555887       500.311592831         2.722050483         4.858606370         0.073241597
        99            9.900000         2.151065651       503.709305628         2.707527666         4.858593317         0.055224743
       100           10.000000         2.168673696       507.832534595         2.689904280         4.858577976         0.068916788
       101           10.100000         2.189134542       512.623796238         2.669426003         4.858560545         0.255563257
       102           10.200000         2.212169556       518.017844057         2.646371691         4.858541248         0.107829455
       103           10.300000         2.237470520       523.942503370         2.621049800         4.858520321         0.086886538
       104           10.400000         2.264703601       530.319601133         2.593794455         4.858498056         0.077866338
       105           10.500000         2.293513604       537.065962656         2.564961104         4.858474707         0.084563019
       106           10.600000         2.323528477       544.094465597         2.534922124         4.858450601         0.074872367
       107           10.700000         2.354364026       551.315143740         2.504061995         4.858426021         0.084739845
       108           10.800000         2.385628777       558.636327092         2.472772506         4.858401283         0.106758686
       109           10.900000         2.416928935       565.965801509         2.441447768         4.858376702         0.073868249
       110           11.000000         2.447873341       573.211970671         2.410479253         4.858352594         0.061107937
       111           11.100000         2.478078354       580.284997837         2.380250875         4.858329229         0.271492045
       112           11.200000         2.507172653       587.097932299         2.351134233         4.858306885         0.123469993
       113           11.300000         2.534801931       593.567806599         2.323483934         4.858285864         0.107959669
       114           11.400000         2.560633232       599.616653389         2.297633208         4.858266439         0.086845417
       115           11.500000         2.584359070       605.172469611         2.273889772         4.858248842         0.079017768
       116           11.600000         2.605701249       610.170110854         2.252532045         4.858233294         0.085806988
       117           11.700000         2.624414238       614.552081593         2.233805721         4.858219959         0.075409284
       118           11.800000         2.640288130       618.269228409         2.217920870         4.858209000         0.102242552
       119           11.900000         2.653151152       621.281328028         2.205049397         4.858200549         0.073312808
       120           12.000000         2.662871674       623.557556639         2.195323025         4.858194698         0.070212865
       121           12.100000         2.669359665       625.076832245         2.188831822         4.858191487         0.232306076
       122           12.200000         2.672567699       625.828049044         2.185623235         4.858190934         0.078599853
       123           12.300000         2.672491342       625.810168730         2.185701717         4.858193059         0.090925425
       124           12.400000         2.669168991       625.032182703         2.189028829         4.858197820         0.088917455
       125           12.500000         2.662681204       623.512954828         2.195523945         4.858205149         0.056562329
       126           12.600000         2.653149403       621.280918586         2.205065504         4.858214908         0.069349844
       127           12.700000         2.640734182       618.373679338         2.217492806         4.858226989         0.074009608
       128           12.800000         2.625633032       614.837483168         2.232608176         4.858241207         0.082832329
       129           12.900000         2.608077572       610.726568094         2.250179794         4.858257366         0.081483707
       130           13.000000         2.588330377       606.102420019         2.269944867         4.858275244         0.093520237
       131           13.100000         2.566681419       601.032941340         2.291613152         4.858294571         0.210832229
       132           13.200000         2.543444201       595.591543901         2.314870890         4.858315091         0.057291990
       133           13.300000         2.518951551       589.856165409         2.339384981         4.858336532         0.071697719
       134           13.400000         2.493551195       583.908231837         2.364807447         4.858358642         0.057655713
       135           13.500000         2.467601123       577.831572713         2.390779962         4.858381085         0.072088394
       136           13.600000         2.441464827       571.711306031         2.416938760         4.858403587         0.056565367
       137           13.700000         2.415506532       565.632721265         2.442919309         4.858425841         0.070261098
       138           13.800000         2.390086374       559.680150766         2.468361179         4.858447553         0.058501905
       139           13.900000         2.365555593       553.935843070         2.492912823         4.858468416         0.053610360
       140           14.000000         2.342251944       548.478889925         2.516236221         4.858488165         0.067950696
       141           14.100000         2.320495265       543.384186349         2.538011263         4.858506528         0.157455901
       142           14.200000         2.300583318       538.721458744         2.557939937         4.858523255         0.054236831
       143           14.300000         2.282787885       534.554349720         2.575750263         4.858538148         0.057572894
       144           14.400000         2.267351126       530.939565138         2.591199872         4.858550998         0.050900394
       145           14.500000         2.254482444       527.926140009         2.604079204         4.858561648         0.067818761
       146           14.600000         2.244355729       525.554794209         2.614214216         4.858569944         0.054930765
       147           14.700000         2.237107115       523.857405695         2.621468663         4.858575778         0.055389315
       148           14.800000         2.232833239       522.856603624         2.625745839         4.858579078         0.237868870
       149           14.900000         2.231589948       522.565465400         2.626989847         4.858579795         0.067132570
       150           15.000000         2.233391588       522.987350524         2.625186339         4.858577926         0.067990642
       151           15.100000         2.238210854       524.115865260         2.620362619         4.858573472         0.149104604
       152           15.200000         2.245979202       525.934958609         2.612587302         4.858566504         0.053995926
       153           15.300000         2.256587777       528.419140406         2.601969342         4.858557119         0.067875948
       154           15.400000         2.269888819       531.533809748         2.588656628         4.858545447         0.053533208
       155           15.500000         2.285697664       535.235724906         2.572833973         4.858531637         0.054905018
       156           15.600000         2.303795233       539.473584301         2.554720644         4.858515877         0.059848351
       157           15.700000         2.323930905       544.188700901         2.534567454         4.858498359         0.054642200
       158           15.800000         2.345825843       549.315780306         2.512653490         4.858479334         0.067747414
       159           15.900000         2.369176644       554.783774932         2.489282412         4.858459056         0.054068577
       160           16.000000         2.393659389       560.516833969         2.464778392         4.858437780         0.054283224
       161           16.100000         2.418933926       566.435305087         2.439481848         4.858415775         0.157879047
       162           16.200000         2.444648388       572.456791858         2.413744949         4.858393337         0.054026460
       163           16.300000         2.470443851       578.497246842         2.387926932         4.858370783         0.067488369
       164           16.400000         2.495958985       584.472057492         2.362389413         4.858348398         0.054047264
       165           16.500000         2.520834905       590.297185543         2.337491573         4.858326479         0.053981762
       166           16.600000         2.544719936       595.890279343         2.313585378         4.858305314         0.053815797
       167           16.700000         2.567274174       601.171745175         2.291011030         4.858285204         0.050355960
       168           16.800000         2.588174008       606.065803581         2.270092381         4.858266389         0.053545425
       169           16.900000         2.607116407       610.501494682         2.251132730         4.858249137         0.066813763
       170           17.000000         2.623822967       614.413625152         2.234410722         4.858233689         0.053977419
       171           17.100000         2.638043607       617.743634439         2.220176617         4.858220224         0.157462554
       172           17.200000         2.649559909       620.440376300         2.208649023         4.858208933         0.054472312
       173           17.300000         2.658188060       622.460807393         2.200011916         4.858199976         0.054323919
       174           17.400000         2.663781306       623.770562888         2.194412173         4.858193479         0.053580444
       175           17.500000         2.666231935       624.344419995         2.191957604         4.858189538         0.054116979
       176           17.600000         2.665472843       624.166665566         2.192715369         4.858188213         0.054348607
       177           17.700000         2.661478521       623.231325842         2.196711012         4.858189533         0.054366825
       178           17.800000         2.654265424       621.542254043         2.203928064         4.858193488         0.076487005
       179           17.900000         2.643891967       619.113129367         2.214308068         4.858200035         0.054427816
       180           18.000000         2.630457941       615.967319329         2.227751164         4.858209105         0.054365516
       181           18.100000         2.614103280       612.137592111         2.244117286         4.858220566         0.158471907
       182           18.200000         2.595006449       607.665738026         2.263227856         4.858234305         0.054895867
       183           18.300000         2.573382320       602.602073412         2.284867849         4.858250169         0.053949136
       184           18.400000         2.549479464       597.004805446         2.308788493         4.858267957         0.040417345
       185           18.500000         2.523577122       590.939323067         2.334710329         4.858287451         0.028694037
       186           18.600000         2.495981764       584.477391647         2.362326659         4.858308423         0.028139897
       187           18.700000         2.467023276       577.696259803         2.391307321         4.858330597         0.028439078
       188           18.800000         2.437050903       570.677709285         2.421302802         4.858353706         0.029030513
       189           18.900000         2.406428830       563.507020103         2.451948640         4.858377470         0.028261064
       190           19.000000         2.375531650       556.271909893         2.482869963         4.858401613         0.028400756
       191           19.100000         2.344739733       549.061448682         2.513686052         4.858425785         0.116524417
       192           19.200000         2.314434467       541.964945518         2.544015230         4.858449697         0.030908743
       193           19.300000         2.284993471       535.070825997         2.573479610         4.858473081         0.030946627
       194           19.400000         2.256785890       528.465531855         2.601709756         4.858495646         0.028760104
       195           19.500000         2.230167802       522.232445216         2.628349317         4.858517118         0.029151350
       196           19.600000         2.205477780       516.450848595         2.653059448         4.858537228         0.043905765
       197           19.700000         2.183032697       511.194943433         2.675523047         4.858555743         0.066508345
       198           19.800000         2.163123837       506.532938846         2.695448601         4.858572439         0.054480402
       199           19.900000         2.146013357       502.526223257         2.712573782         4.858587138         0.056405520
       200           20.000000         2.131931269       499.228658439         2.726668420         4.858599689         0.058288496
