 DBCSR| Multiplication driver                                               XSMM
 DBCSR| Multrec recursion limit                                              512
 DBCSR| Multiplication stack size                                           1000
 DBCSR| Maximum elements for images                                    UNLIMITED
 DBCSR| Randmat seed                                                    12341313
 DBCSR| Multiplication size stacks                                             3


  **** **** ******  **  PROGRAM STARTED AT               2021-04-29 14:23:29.615
 ***** ** ***  *** **   PROGRAM STARTED ON               bulstake.phys.ucl.ac.uk
 **    ****   ******    PROGRAM STARTED BY                             sgiannini
 ***** **    ** ** **   PROGRAM PROCESS ID                                 12989
  **** **  *******  **  PROGRAM STARTED IN /scratch/sgiannini/REG_TEST_MERGING/3
                                           7-071a0540f1_code_extension_V3_ADJ/ru
                                           n-fssh-MTS10

 CP2K| version string:                    CP2K version 4.0 (Development Version)
 CP2K| source code revision number:                                  git:1080fc1
 CP2K| cp2kflags: libint fftw3 libxc quip smm_dnn smm libxsmm libderiv_max_am1=5
 CP2K|             libint_max_am=6
 CP2K| is freely available from                            https://www.cp2k.org/
 CP2K| Program compiled at                          Thu 29 Apr 10:11:08 BST 2021
 CP2K| Program compiled on                               bulstake.phys.ucl.ac.uk
 CP2K| Program compiled for                                         local_hetero
 CP2K| Data directory path           /scratch/sgiannini/flavoured-cptk/cp2k/data
 CP2K| Input file name                                                   run.inp

 GLOBAL| Force Environment number                                              1
 GLOBAL| Basis set file name                                           POTENTIAL
 GLOBAL| MM Potential file name                                     MM_POTENTIAL
 GLOBAL| Coordinate file name                                       pos-init.xyz
 GLOBAL| Force Environment number                                              2
 GLOBAL| Basis set file name                                           POTENTIAL
 GLOBAL| MM Potential file name                                     MM_POTENTIAL
 GLOBAL| Coordinate file name                                       pos-init.xyz
 GLOBAL| Force Environment number                                              3
 GLOBAL| Basis set file name                                           POTENTIAL
 GLOBAL| MM Potential file name                                     MM_POTENTIAL
 GLOBAL| Coordinate file name                                       pos-init.xyz
 GLOBAL| Method name                                                        CP2K
 GLOBAL| Project name                                                        run
 GLOBAL| Preferred FFT library                                             FFTW3
 GLOBAL| Preferred diagonalization lib.                                       SL
 GLOBAL| Run type                                                             MD
 GLOBAL| All-to-all communication in single precision                          F
 GLOBAL| FFTs using library dependent lengths                                  F
 GLOBAL| Global print level                                                  LOW
 GLOBAL| Total number of message passing processes                             1
 GLOBAL| Number of threads for this process                                    1
 GLOBAL| This output is from process                                           0
 GLOBAL| CPU model name :  Intel(R) Xeon(R) CPU E5-2687W v4 @ 3.00GHz

 MEMORY| system memory details [Kb]
 MEMORY|                        rank 0           min           max       average
 MEMORY| MemTotal             65894336      65894336      65894336      65894336
 MEMORY| MemFree               6864408       6864408       6864408       6864408
 MEMORY| Buffers                  8744          8744          8744          8744
 MEMORY| Cached               40779116      40779116      40779116      40779116
 MEMORY| Slab                  3236700       3236700       3236700       3236700
 MEMORY| SReclaimable          2479316       2479316       2479316       2479316
 MEMORY| MemLikelyFree        50131584      50131584      50131584      50131584

 TOTAL NUMBER OF FORCE EVALS           3
 NOTE:n_subforce_eval           2
 DECOMP =  T
 DECOMP =  T

 MD| Molecular Dynamics Protocol 
 MD| Ensemble Type                                                           NVE
 MD| Number of Time Steps                                                    200
 MD| Time Step [fs]                                                         0.10
 MD| Temperature [K]                                                      400.00
 MD| Temperature tolerance [K]                                              0.00
 MD| Print MD information every                                        1 step(s)
 MD| File type     Print frequency[steps]                             File names
 MD| Coordinates          200                                      run-pos-1.xyz
 MD| Velocities             1                                      run-vel-1.xyz
 MD| Energies               1                                         run-1.ener
 MD| Dump                 200                                      run-1.restart

 ROT| Rotational Analysis Info 
 ROT| Principal axes and moments of inertia in atomic units:
 ROT|                                1                 2                 3
 ROT| EIGENVALUES            0.319196005E+10   0.583971964E+10   0.882037602E+10
 ROT|      X                     0.997631408       0.066105605       0.019016393
 ROT|      Y                     0.066118536      -0.997811774      -0.000051363
 ROT|      Z                    -0.018971385      -0.001308578       0.999819171
 ROT| Numer of Rotovibrational vectors:     6

 Calculation of degrees of freedom
                                                      Number of atoms:       900
                                 Number of Intramolecular constraints:         0
                                 Number of Intermolecular constraints:         0
                                  Invariants(translation + rotations):         3
                                                   Degrees of freedom:      2697


 Restraints Information
                                  Number of Intramolecular restraints:         0
                                  Number of Intermolecular restraints:         0

 *** WARNING in motion/thermostat/thermostat_methods.F:280 :: Thermostat ***
 *** for Particles has been defined but the ensemble provided does not   ***
 *** support thermostat for Particles! Ignoring thermostat input.        ***

 ************************** Velocities initialization **************************
 Initial Temperature                                                    564.84 K
 COM velocity:           -0.000000000004     -0.000000000000      0.000000000001
 *******************************************************************************

 FIRST CALL: force_env_calc_energy_force
 RESTART_KEY F
 FOB-SH: ALLOCATION OF S MATRICES
 ACTIVE STATE           3
 FOBSH| ACTIVE STATE =            3

 ENERGY| Total FORCE_EVAL ( MIXED ) energy (a.u.):             2.446232237135226

 STEP NUMBER                  =            0
 CPU TIME [s]                 =    0.0000000000000000        0.0000000000000000     

 MD_ENERGIES| Initialization proceeding


 ******************************** GO CP2K GO! **********************************
 INITIAL POTENTIAL ENERGY[hartree]     =                      0.244623223714E+01
 INITIAL KINETIC ENERGY[hartree]       =                      0.241212372912E+01
 INITIAL TEMPERATURE[K]                =                                 564.841
 INITIAL VOLUME[bohr^3]                =                      0.580604601118E+05
 INITIAL CELL LNTHS[bohr]   =      0.7651501E+02   0.5624770E+02   0.1634991E+02
 INITIAL CELL ANGLS[deg]    =      0.9000000E+02   0.1244000E+03   0.9000000E+02
 ******************************** GO CP2K GO! **********************************
 FOBSH| *** OFF-DIAGONAL GRADIENT CALCULATION
 FOBSH| Put former active state           3 in new active state           3
 RANDOM_NUMBER_HOPPING_PROBA   5.9147270233983230E-002
 FOBSH| ACTIVE STATE =            3

 ENERGY| Total FORCE_EVAL ( MIXED ) energy (a.u.):             2.417622462883075

 FOBSH| CASE1: no hop and no trivial crossing
 ENTER integrator.F
 STEP NUMBER                  =            1
 CPU TIME [s]                 =   0.57093416899442673       0.57093416899442673     

 *******************************************************************************
 ENSEMBLE TYPE                =                                              NVE
 STEP NUMBER                  =                                                1
 TIME [fs]                    =                                         0.100000
 CONSERVED QUANTITY [hartree] =                               0.485833409768E+01

                                              INSTANTANEOUS             AVERAGES
 CPU TIME [s]                 =                        0.57                 0.57
 ENERGY DRIFT PER ATOM [K]    =         -0.767282622205E-02   0.000000000000E+00
 POTENTIAL ENERGY[hartree]    =          0.241762246288E+01   0.241762246288E+01
 KINETIC ENERGY [hartree]     =          0.244071163479E+01   0.244071163479E+01
 TEMPERATURE [K]              =                     571.535              571.535
 *******************************************************************************

 FOBSH| Put former active state           3 in new active state           3
 RANDOM_NUMBER_HOPPING_PROBA  0.31334635223635504     
 FOBSH| ACTIVE STATE =            3

 ENERGY| Total FORCE_EVAL ( MIXED ) energy (a.u.):             2.390387005314978

 FOBSH| CASE1: no hop and no trivial crossing
 ENTER integrator.F
 STEP NUMBER                  =            2
 CPU TIME [s]                 =    5.6896032765507698E-002  0.31391510087996721     

 *******************************************************************************
 ENSEMBLE TYPE                =                                              NVE
 STEP NUMBER                  =                                                2
 TIME [fs]                    =                                         0.200000
 CONSERVED QUANTITY [hartree] =                               0.485831334085E+01

                                              INSTANTANEOUS             AVERAGES
 CPU TIME [s]                 =                        0.06                 0.31
 ENERGY DRIFT PER ATOM [K]    =         -0.149555809762E-01  -0.747779048812E-02
 POTENTIAL ENERGY[hartree]    =          0.239038700531E+01   0.240400473410E+01
 KINETIC ENERGY [hartree]     =          0.246792633554E+01   0.245431898517E+01
 TEMPERATURE [K]              =                     577.908              574.721
 *******************************************************************************

 FOBSH| Put former active state           3 in new active state           3
 RANDOM_NUMBER_HOPPING_PROBA  0.96023393881708841     
 FOBSH| ACTIVE STATE =            3

 ENERGY| Total FORCE_EVAL ( MIXED ) energy (a.u.):             2.364855785405935

 FOBSH| CASE1: no hop and no trivial crossing
 ENTER integrator.F
 STEP NUMBER                  =            3
 CPU TIME [s]                 =    7.1597846224904060E-002  0.23314268266161281     

 *******************************************************************************
 ENSEMBLE TYPE                =                                              NVE
 STEP NUMBER                  =                                                3
 TIME [fs]                    =                                         0.300000
 CONSERVED QUANTITY [hartree] =                               0.485829413816E+01

                                              INSTANTANEOUS             AVERAGES
 CPU TIME [s]                 =                        0.07                 0.23
 ENERGY DRIFT PER ATOM [K]    =         -0.216930503991E-01  -0.122162104584E-01
 POTENTIAL ENERGY[hartree]    =          0.236485578541E+01   0.239095508453E+01
 KINETIC ENERGY [hartree]     =          0.249343835276E+01   0.246735877436E+01
 TEMPERATURE [K]              =                     583.882              577.775
 *******************************************************************************

 FOBSH| Put former active state           3 in new active state           3
 RANDOM_NUMBER_HOPPING_PROBA  0.63220638001778329     
 FOBSH| ACTIVE STATE =            3

 ENERGY| Total FORCE_EVAL ( MIXED ) energy (a.u.):             2.341333706842832

 FOBSH| CASE1: no hop and no trivial crossing
 ENTER integrator.F
 STEP NUMBER                  =            4
 CPU TIME [s]                 =    5.7226642966270447E-002  0.18916367273777723     

 *******************************************************************************
 ENSEMBLE TYPE                =                                              NVE
 STEP NUMBER                  =                                                4
 TIME [fs]                    =                                         0.400000
 CONSERVED QUANTITY [hartree] =                               0.485827676515E+01

                                              INSTANTANEOUS             AVERAGES
 CPU TIME [s]                 =                        0.06                 0.19
 ENERGY DRIFT PER ATOM [K]    =         -0.277885581191E-01  -0.161092973736E-01
 POTENTIAL ENERGY[hartree]    =          0.234133370684E+01   0.237854974011E+01
 KINETIC ENERGY [hartree]     =          0.251694305831E+01   0.247975484535E+01
 TEMPERATURE [K]              =                     589.386              580.678
 *******************************************************************************

 FOBSH| Put former active state           3 in new active state           3
 RANDOM_NUMBER_HOPPING_PROBA  0.89770462054818900     
 FOBSH| ACTIVE STATE =            3

 ENERGY| Total FORCE_EVAL ( MIXED ) energy (a.u.):             2.320096268034369

 FOBSH| CASE1: no hop and no trivial crossing
 ENTER integrator.F
 STEP NUMBER                  =            5
 CPU TIME [s]                 =    5.7669475674629211E-002  0.16286483332514765     

 *******************************************************************************
 ENSEMBLE TYPE                =                                              NVE
 STEP NUMBER                  =                                                5
 TIME [fs]                    =                                         0.500000
 CONSERVED QUANTITY [hartree] =                               0.485826144514E+01

                                              INSTANTANEOUS             AVERAGES
 CPU TIME [s]                 =                        0.06                 0.16
 ENERGY DRIFT PER ATOM [K]    =         -0.331637486300E-01  -0.195201876249E-01
 POTENTIAL ENERGY[hartree]    =          0.232009626803E+01   0.236685904570E+01
 KINETIC ENERGY [hartree]     =          0.253816517710E+01   0.249143691170E+01
 TEMPERATURE [K]              =                     594.355              583.413
 *******************************************************************************

 FOBSH| Put former active state           3 in new active state           3
 RANDOM_NUMBER_HOPPING_PROBA  0.58596674955475236     
 FOBSH| ACTIVE STATE =            3

 ENERGY| Total FORCE_EVAL ( MIXED ) energy (a.u.):             2.301385973946529

 FOBSH| CASE1: no hop and no trivial crossing
 ENTER integrator.F
 STEP NUMBER                  =            6
 CPU TIME [s]                 =    5.7040456682443619E-002  0.14522743721803030     

 *******************************************************************************
 ENSEMBLE TYPE                =                                              NVE
 STEP NUMBER                  =                                                6
 TIME [fs]                    =                                         0.600000
 CONSERVED QUANTITY [hartree] =                               0.485824835928E+01

                                              INSTANTANEOUS             AVERAGES
 CPU TIME [s]                 =                        0.06                 0.15
 ENERGY DRIFT PER ATOM [K]    =         -0.377550639006E-01  -0.225593336708E-01
 POTENTIAL ENERGY[hartree]    =          0.230138597395E+01   0.235594686707E+01
 KINETIC ENERGY [hartree]     =          0.255686238533E+01   0.250234115730E+01
 TEMPERATURE [K]              =                     598.734              585.967
 *******************************************************************************

 FOBSH| Put former active state           3 in new active state           3
 RANDOM_NUMBER_HOPPING_PROBA  0.80706637023710770     
 FOBSH| ACTIVE STATE =            3

 ENERGY| Total FORCE_EVAL ( MIXED ) energy (a.u.):             2.285409278302860

 FOBSH| CASE1: no hop and no trivial crossing
 ENTER integrator.F
 STEP NUMBER                  =            7
 CPU TIME [s]                 =    5.6652978062629700E-002  0.13257394305297307     

 *******************************************************************************
 ENSEMBLE TYPE                =                                              NVE
 STEP NUMBER                  =                                                7
 TIME [fs]                    =                                         0.700000
 CONSERVED QUANTITY [hartree] =                               0.485823769174E+01

                                              INSTANTANEOUS             AVERAGES
 CPU TIME [s]                 =                        0.06                 0.13
 ENERGY DRIFT PER ATOM [K]    =         -0.414978820043E-01  -0.252648405756E-01
 POTENTIAL ENERGY[hartree]    =          0.228540927830E+01   0.234587006868E+01
 KINETIC ENERGY [hartree]     =          0.257282841344E+01   0.251241076532E+01
 TEMPERATURE [K]              =                     602.472              588.325
 *******************************************************************************

 FOBSH| Put former active state           3 in new active state           3
 RANDOM_NUMBER_HOPPING_PROBA  0.43377226410075814     
 FOBSH| ACTIVE STATE =            3

 ENERGY| Total FORCE_EVAL ( MIXED ) energy (a.u.):             2.272333915389174

 FOBSH| CASE1: no hop and no trivial crossing
 ENTER integrator.F
 STEP NUMBER                  =            8
 CPU TIME [s]                 =    7.0792138576507568E-002  0.12485121749341488     

 *******************************************************************************
 ENSEMBLE TYPE                =                                              NVE
 STEP NUMBER                  =                                                8
 TIME [fs]                    =                                         0.800000
 CONSERVED QUANTITY [hartree] =                               0.485822955659E+01

                                              INSTANTANEOUS             AVERAGES
 CPU TIME [s]                 =                        0.07                 0.12
 ENERGY DRIFT PER ATOM [K]    =         -0.443521864760E-01  -0.276507588132E-01
 POTENTIAL ENERGY[hartree]    =          0.227233391539E+01   0.233667804951E+01
 KINETIC ENERGY [hartree]     =          0.258589564120E+01   0.252159637481E+01
 TEMPERATURE [K]              =                     605.532              590.475
 *******************************************************************************

 FOBSH| Put former active state           3 in new active state           3
 RANDOM_NUMBER_HOPPING_PROBA  0.73555961274458093     
 FOBSH| ACTIVE STATE =            3

 ENERGY| Total FORCE_EVAL ( MIXED ) energy (a.u.):             2.262286870997356

 FOBSH| CASE1: no hop and no trivial crossing
 ENTER integrator.F
 STEP NUMBER                  =            9
 CPU TIME [s]                 =    5.7954879477620125E-002  0.11741829104721546     

 *******************************************************************************
 ENSEMBLE TYPE                =                                              NVE
 STEP NUMBER                  =                                                9
 TIME [fs]                    =                                         0.900000
 CONSERVED QUANTITY [hartree] =                               0.485822406344E+01

                                              INSTANTANEOUS             AVERAGES
 CPU TIME [s]                 =                        0.06                 0.12
 ENERGY DRIFT PER ATOM [K]    =         -0.462795184058E-01  -0.297206209901E-01
 POTENTIAL ENERGY[hartree]    =          0.226228687100E+01   0.232841236301E+01
 KINETIC ENERGY [hartree]     =          0.259593719244E+01   0.252985646566E+01
 TEMPERATURE [K]              =                     607.884              592.410
 *******************************************************************************

 FOBSH| Put former active state           3 in new active state           3
 RANDOM_NUMBER_HOPPING_PROBA   4.1260874732924148E-002
 FOBSH| ACTIVE STATE =            3

 ENERGY| Total FORCE_EVAL ( MIXED ) energy (a.u.):             2.255352786035606

 FOBSH| CASE1: no hop and no trivial crossing
 ENTER integrator.F
 STEP NUMBER                  =           10
 CPU TIME [s]                 =    7.0403698831796646E-002  0.11271683182567359     

 *******************************************************************************
 ENSEMBLE TYPE                =                                              NVE
 STEP NUMBER                  =                                               10
 TIME [fs]                    =                                         1.000000
 CONSERVED QUANTITY [hartree] =                               0.485822126500E+01

                                              INSTANTANEOUS             AVERAGES
 CPU TIME [s]                 =                        0.07                 0.11
 ENERGY DRIFT PER ATOM [K]    =         -0.472613822582E-01  -0.314746971169E-01
 POTENTIAL ENERGY[hartree]    =          0.225535278604E+01   0.232110640532E+01
 KINETIC ENERGY [hartree]     =          0.260286847896E+01   0.253715766699E+01
 TEMPERATURE [K]              =                     609.507              594.119
 *******************************************************************************

 FOBSH| *** OFF-DIAGONAL GRADIENT CALCULATION
 FOBSH| Put former active state           3 in new active state           3
 RANDOM_NUMBER_HOPPING_PROBA  0.58709189717544119     
 FOBSH| ACTIVE STATE =            3

 ENERGY| Total FORCE_EVAL ( MIXED ) energy (a.u.):             2.251573002671111

 FOBSH| CASE1: no hop and no trivial crossing
 ENTER integrator.F
 STEP NUMBER                  =           11
 CPU TIME [s]                 =   0.16284586116671562       0.11727401631122286     

 *******************************************************************************
 ENSEMBLE TYPE                =                                              NVE
 STEP NUMBER                  =                                               11
 TIME [fs]                    =                                         1.100000
 CONSERVED QUANTITY [hartree] =                               0.485822121868E+01

                                              INSTANTANEOUS             AVERAGES
 CPU TIME [s]                 =                        0.16                 0.12
 ENERGY DRIFT PER ATOM [K]    =         -0.472776315971E-01  -0.329113275242E-01
 POTENTIAL ENERGY[hartree]    =          0.225157300267E+01   0.231478518689E+01
 KINETIC ENERGY [hartree]     =          0.260664821601E+01   0.254347498963E+01
 TEMPERATURE [K]              =                     610.392              595.599
 *******************************************************************************

 FOBSH| Put former active state           3 in new active state           3
 RANDOM_NUMBER_HOPPING_PROBA  0.32174060049514402     
 FOBSH| ACTIVE STATE =            3

 ENERGY| Total FORCE_EVAL ( MIXED ) energy (a.u.):             2.250945100637087

 FOBSH| CASE1: no hop and no trivial crossing
 ENTER integrator.F
 STEP NUMBER                  =           12
 CPU TIME [s]                 =    7.0693075656890869E-002  0.11339227125669518     

 *******************************************************************************
 ENSEMBLE TYPE                =                                              NVE
 STEP NUMBER                  =                                               12
 TIME [fs]                    =                                         1.200000
 CONSERVED QUANTITY [hartree] =                               0.485822389082E+01

                                              INSTANTANEOUS             AVERAGES
 CPU TIME [s]                 =                        0.07                 0.11
 ENERGY DRIFT PER ATOM [K]    =         -0.463400823775E-01  -0.340303904287E-01
 POTENTIAL ENERGY[hartree]    =          0.225094510064E+01   0.230946517971E+01
 KINETIC ENERGY [hartree]     =          0.260727879019E+01   0.254879197301E+01
 TEMPERATURE [K]              =                     610.540              596.844
 *******************************************************************************

 FOBSH| Put former active state           3 in new active state           3
 RANDOM_NUMBER_HOPPING_PROBA  0.97250694206018107     
 FOBSH| ATTEMPTED_HOP
 FOBSH| ACTIVE STATE =            3

 ENERGY| Total FORCE_EVAL ( MIXED ) energy (a.u.):             2.253423185522029

 FOBSH| Active state before the attempt to hop:           3
 FOBSH| Active state after the attempt to hop:           3
 FOBSH| CASE4: rejected hop and good overlap
 ENTER integrator.F
 STEP NUMBER                  =           13
 CPU TIME [s]                 =    6.0058066621422768E-002  0.10928964013090502     

 *******************************************************************************
 ENSEMBLE TYPE                =                                              NVE
 STEP NUMBER                  =                                               13
 TIME [fs]                    =                                         1.300000
 CONSERVED QUANTITY [hartree] =                               0.485822923285E+01

                                              INSTANTANEOUS             AVERAGES
 CPU TIME [s]                 =                        0.06                 0.11
 ENERGY DRIFT PER ATOM [K]    =         -0.444657743050E-01  -0.348331122653E-01
 POTENTIAL ENERGY[hartree]    =          0.225342318552E+01   0.230515425708E+01
 KINETIC ENERGY [hartree]     =          0.260480604733E+01   0.255310074795E+01
 TEMPERATURE [K]              =                     609.960              597.853
 *******************************************************************************

 FOBSH| Put former active state           3 in new active state           3
 RANDOM_NUMBER_HOPPING_PROBA  0.62993535795867317     
 FOBSH| ACTIVE STATE =            3

 ENERGY| Total FORCE_EVAL ( MIXED ) energy (a.u.):             2.258916661541341

 FOBSH| CASE1: no hop and no trivial crossing
 ENTER integrator.F
 STEP NUMBER                  =           14
 CPU TIME [s]                 =    7.0707796141505241E-002  0.10653379413166217     

 *******************************************************************************
 ENSEMBLE TYPE                =                                              NVE
 STEP NUMBER                  =                                               14
 TIME [fs]                    =                                         1.400000
 CONSERVED QUANTITY [hartree] =                               0.485823715779E+01

                                              INSTANTANEOUS             AVERAGES
 CPU TIME [s]                 =                        0.07                 0.11
 ENERGY DRIFT PER ATOM [K]    =         -0.416852263720E-01  -0.353225489872E-01
 POTENTIAL ENERGY[hartree]    =          0.225891666154E+01   0.230185157168E+01
 KINETIC ENERGY [hartree]     =          0.259932049625E+01   0.255640215855E+01
 TEMPERATURE [K]              =                     608.676              598.626
 *******************************************************************************

 FOBSH| Put former active state           3 in new active state           3
 RANDOM_NUMBER_HOPPING_PROBA  0.70993380124360117     
 FOBSH| ACTIVE STATE =            3

 ENERGY| Total FORCE_EVAL ( MIXED ) energy (a.u.):             2.267300751964252

 FOBSH| CASE1: no hop and no trivial crossing
 ENTER integrator.F
 STEP NUMBER                  =           15
 CPU TIME [s]                 =    5.7422580197453499E-002  0.10325971320271492     

 *******************************************************************************
 ENSEMBLE TYPE                =                                              NVE
 STEP NUMBER                  =                                               15
 TIME [fs]                    =                                         1.500000
 CONSERVED QUANTITY [hartree] =                               0.485824756386E+01

                                              INSTANTANEOUS             AVERAGES
 CPU TIME [s]                 =                        0.06                 0.10
 ENERGY DRIFT PER ATOM [K]    =         -0.380341445927E-01  -0.355033220276E-01
 POTENTIAL ENERGY[hartree]    =          0.226730075196E+01   0.229954818370E+01
 KINETIC ENERGY [hartree]     =          0.259094681189E+01   0.255870513544E+01
 TEMPERATURE [K]              =                     606.715              599.165
 *******************************************************************************

 FOBSH| Put former active state           3 in new active state           3
 RANDOM_NUMBER_HOPPING_PROBA  0.18135586630600045     
 FOBSH| ACTIVE STATE =            3

 ENERGY| Total FORCE_EVAL ( MIXED ) energy (a.u.):             2.278405532059073

 FOBSH| CASE1: no hop and no trivial crossing
 ENTER integrator.F
 STEP NUMBER                  =           16
 CPU TIME [s]                 =    6.9860311225056648E-002  0.10117225057911128     

 *******************************************************************************
 ENSEMBLE TYPE                =                                              NVE
 STEP NUMBER                  =                                               16
 TIME [fs]                    =                                         1.600000
 CONSERVED QUANTITY [hartree] =                               0.485826028725E+01

                                              INSTANTANEOUS             AVERAGES
 CPU TIME [s]                 =                        0.07                 0.10
 ENERGY DRIFT PER ATOM [K]    =         -0.335700069555E-01  -0.353824898356E-01
 POTENTIAL ENERGY[hartree]    =          0.227840553206E+01   0.229822676797E+01
 KINETIC ENERGY [hartree]     =          0.257985475519E+01   0.256002698667E+01
 TEMPERATURE [K]              =                     604.118              599.475
 *******************************************************************************

 FOBSH| Put former active state           3 in new active state           3
 RANDOM_NUMBER_HOPPING_PROBA  0.18975692136898631     
 FOBSH| ACTIVE STATE =            3

 ENERGY| Total FORCE_EVAL ( MIXED ) energy (a.u.):             2.292023827658906

 FOBSH| CASE1: no hop and no trivial crossing
 ENTER integrator.F
 STEP NUMBER                  =           17
 CPU TIME [s]                 =    5.8296104893088341E-002   9.8650124362286401E-002

 *******************************************************************************
 ENSEMBLE TYPE                =                                              NVE
 STEP NUMBER                  =                                               17
 TIME [fs]                    =                                         1.700000
 CONSERVED QUANTITY [hartree] =                               0.485827515340E+01

                                              INSTANTANEOUS             AVERAGES
 CPU TIME [s]                 =                        0.06                 0.10
 ENERGY DRIFT PER ATOM [K]    =         -0.283540579729E-01  -0.349690526672E-01
 POTENTIAL ENERGY[hartree]    =          0.229202382766E+01   0.229786188913E+01
 KINETIC ENERGY [hartree]     =          0.256625132574E+01   0.256039312426E+01
 TEMPERATURE [K]              =                     600.932              599.560
 *******************************************************************************

 FOBSH| Put former active state           3 in new active state           3
 RANDOM_NUMBER_HOPPING_PROBA  0.37603805032929283     
 FOBSH| ACTIVE STATE =            3

 ENERGY| Total FORCE_EVAL ( MIXED ) energy (a.u.):             2.307914068866854

 FOBSH| CASE1: no hop and no trivial crossing
 ENTER integrator.F
 STEP NUMBER                  =           18
 CPU TIME [s]                 =    6.9931289181113243E-002   9.7054633518887892E-002

 *******************************************************************************
 ENSEMBLE TYPE                =                                              NVE
 STEP NUMBER                  =                                               18
 TIME [fs]                    =                                         1.800000
 CONSERVED QUANTITY [hartree] =                               0.485829195830E+01

                                              INSTANTANEOUS             AVERAGES
 CPU TIME [s]                 =                        0.07                 0.10
 ENERGY DRIFT PER ATOM [K]    =         -0.224578773441E-01  -0.342739873715E-01
 POTENTIAL ENERGY[hartree]    =          0.230791406887E+01   0.229842034356E+01
 KINETIC ENERGY [hartree]     =          0.255037788944E+01   0.255983672233E+01
 TEMPERATURE [K]              =                     597.215              599.430
 *******************************************************************************

 FOBSH| Put former active state           3 in new active state           3
 RANDOM_NUMBER_HOPPING_PROBA  0.77366124673782377     
 FOBSH| ACTIVE STATE =            3

 ENERGY| Total FORCE_EVAL ( MIXED ) energy (a.u.):             2.325803574554884

 FOBSH| CASE1: no hop and no trivial crossing
 ENTER integrator.F
 STEP NUMBER                  =           19
 CPU TIME [s]                 =    9.2059258371591568E-002   9.6791719037451235E-002

 *******************************************************************************
 ENSEMBLE TYPE                =                                              NVE
 STEP NUMBER                  =                                               19
 TIME [fs]                    =                                         1.900000
 CONSERVED QUANTITY [hartree] =                               0.485831047581E+01

                                              INSTANTANEOUS             AVERAGES
 CPU TIME [s]                 =                        0.09                 0.10
 ENERGY DRIFT PER ATOM [K]    =         -0.159608129654E-01  -0.333101360869E-01
 POTENTIAL ENERGY[hartree]    =          0.232580357455E+01   0.229986156624E+01
 KINETIC ENERGY [hartree]     =          0.253250690125E+01   0.255839831069E+01
 TEMPERATURE [K]              =                     593.030              599.093
 *******************************************************************************

 FOBSH| Put former active state           3 in new active state           3
 RANDOM_NUMBER_HOPPING_PROBA  0.89342687810603316     
 FOBSH| ACTIVE STATE =            3

 ENERGY| Total FORCE_EVAL ( MIXED ) energy (a.u.):             2.345392228789533

 FOBSH| CASE1: no hop and no trivial crossing
 ENTER integrator.F
 STEP NUMBER                  =           20
 CPU TIME [s]                 =    9.9004946649074554E-002   9.6902380418032397E-002

 *******************************************************************************
 ENSEMBLE TYPE                =                                              NVE
 STEP NUMBER                  =                                               20
 TIME [fs]                    =                                         2.000000
 CONSERVED QUANTITY [hartree] =                               0.485833044145E+01

                                              INSTANTANEOUS             AVERAGES
 CPU TIME [s]                 =                        0.10                 0.10
 ENERGY DRIFT PER ATOM [K]    =         -0.895565339583E-02  -0.320924119524E-01
 POTENTIAL ENERGY[hartree]    =          0.234539222879E+01   0.230213809937E+01
 KINETIC ENERGY [hartree]     =          0.251293821266E+01   0.255612530579E+01
 TEMPERATURE [K]              =                     588.448              598.561
 *******************************************************************************

 FOBSH| *** OFF-DIAGONAL GRADIENT CALCULATION
 FOBSH| Put former active state           3 in new active state           3
 RANDOM_NUMBER_HOPPING_PROBA   4.0213527242749389E-002
 FOBSH| ACTIVE STATE =            3

 ENERGY| Total FORCE_EVAL ( MIXED ) energy (a.u.):             2.366356628894423

 FOBSH| CASE1: no hop and no trivial crossing
 ENTER integrator.F
 STEP NUMBER                  =           21
 CPU TIME [s]                 =   0.18427837826311588       0.10106314222017923     

 *******************************************************************************
 ENSEMBLE TYPE                =                                              NVE
 STEP NUMBER                  =                                               21
 TIME [fs]                    =                                         2.100000
 CONSERVED QUANTITY [hartree] =                               0.485835160068E+01

                                              INSTANTANEOUS             AVERAGES
 CPU TIME [s]                 =                        0.18                 0.10
 ENERGY DRIFT PER ATOM [K]    =         -0.153171066641E-02  -0.306371404626E-01
 POTENTIAL ENERGY[hartree]    =          0.236635662889E+01   0.230519612459E+01
 KINETIC ENERGY [hartree]     =          0.249199497178E+01   0.255307148036E+01
 TEMPERATURE [K]              =                     583.544              597.846
 *******************************************************************************

 FOBSH| Put former active state           3 in new active state           3
 RANDOM_NUMBER_HOPPING_PROBA  0.98532566776213681     
 FOBSH| ACTIVE STATE =            3

 ENERGY| Total FORCE_EVAL ( MIXED ) energy (a.u.):             2.388354494137028

 FOBSH| CASE1: no hop and no trivial crossing
 ENTER integrator.F
 STEP NUMBER                  =           22
 CPU TIME [s]                 =    5.7725183665752411E-002   9.9093235013159836E-002

 *******************************************************************************
 ENSEMBLE TYPE                =                                              NVE
 STEP NUMBER                  =                                               22
 TIME [fs]                    =                                         2.200000
 CONSERVED QUANTITY [hartree] =                               0.485837366328E+01

                                              INSTANTANEOUS             AVERAGES
 CPU TIME [s]                 =                        0.06                 0.10
 ENERGY DRIFT PER ATOM [K]    =          0.620918878843E-02  -0.289623073148E-01
 POTENTIAL ENERGY[hartree]    =          0.238835449414E+01   0.230897605047E+01
 KINETIC ENERGY [hartree]     =          0.247001916914E+01   0.254929637531E+01
 TEMPERATURE [K]              =                     578.398              596.962
 *******************************************************************************

 FOBSH| Put former active state           3 in new active state           3
 RANDOM_NUMBER_HOPPING_PROBA  0.17605465571847009     
 FOBSH| ACTIVE STATE =            3

 ENERGY| Total FORCE_EVAL ( MIXED ) energy (a.u.):             2.411029297075684

 FOBSH| CASE1: no hop and no trivial crossing
 ENTER integrator.F
 STEP NUMBER                  =           23
 CPU TIME [s]                 =    7.1097215637564659E-002   9.7876016779438302E-002

 *******************************************************************************
 ENSEMBLE TYPE                =                                              NVE
 STEP NUMBER                  =                                               23
 TIME [fs]                    =                                         2.300000
 CONSERVED QUANTITY [hartree] =                               0.485839632549E+01

                                              INSTANTANEOUS             AVERAGES
 CPU TIME [s]                 =                        0.07                 0.10
 ENERGY DRIFT PER ATOM [K]    =          0.141604681190E-01  -0.270874040351E-01
 POTENTIAL ENERGY[hartree]    =          0.241102929708E+01   0.231341314815E+01
 KINETIC ENERGY [hartree]     =          0.244736702841E+01   0.254486466457E+01
 TEMPERATURE [K]              =                     573.093              595.924
 *******************************************************************************

 FOBSH| Put former active state           3 in new active state           3
 RANDOM_NUMBER_HOPPING_PROBA  0.99748923268117029     
 FOBSH| ACTIVE STATE =            3

 ENERGY| Total FORCE_EVAL ( MIXED ) energy (a.u.):             2.434015019907775

 FOBSH| CASE1: no hop and no trivial crossing
 ENTER integrator.F
 STEP NUMBER                  =           24
 CPU TIME [s]                 =    5.6622060015797615E-002   9.6157101914286613E-002

 *******************************************************************************
 ENSEMBLE TYPE                =                                              NVE
 STEP NUMBER                  =                                               24
 TIME [fs]                    =                                         2.400000
 CONSERVED QUANTITY [hartree] =                               0.485841925853E+01

                                              INSTANTANEOUS             AVERAGES
 CPU TIME [s]                 =                        0.06                 0.10
 ENERGY DRIFT PER ATOM [K]    =          0.222067699609E-01  -0.250334801186E-01
 POTENTIAL ENERGY[hartree]    =          0.243401501991E+01   0.231843822614E+01
 KINETIC ENERGY [hartree]     =          0.242440423862E+01   0.253984548016E+01
 TEMPERATURE [K]              =                     567.716              594.749
 *******************************************************************************

 FOBSH| Put former active state           3 in new active state           3
 RANDOM_NUMBER_HOPPING_PROBA   4.5956989181938995E-002
 FOBSH| ACTIVE STATE =            3

 ENERGY| Total FORCE_EVAL ( MIXED ) energy (a.u.):             2.456941166781348

 FOBSH| CASE1: no hop and no trivial crossing
 ENTER integrator.F
 STEP NUMBER                  =           25
 CPU TIME [s]                 =    7.0571796968579292E-002   9.5133689716458317E-002

 *******************************************************************************
 ENSEMBLE TYPE                =                                              NVE
 STEP NUMBER                  =                                               25
 TIME [fs]                    =                                         2.500000
 CONSERVED QUANTITY [hartree] =                               0.485844214512E+01

                                              INSTANTANEOUS             AVERAGES
 CPU TIME [s]                 =                        0.07                 0.10
 ENERGY DRIFT PER ATOM [K]    =          0.302367761412E-01  -0.228226698682E-01
 POTENTIAL ENERGY[hartree]    =          0.245694116678E+01   0.232397834377E+01
 KINETIC ENERGY [hartree]     =          0.240150097834E+01   0.253431170008E+01
 TEMPERATURE [K]              =                     562.353              593.453
 *******************************************************************************

 FOBSH| Put former active state           3 in new active state           3
 RANDOM_NUMBER_HOPPING_PROBA  0.36396543861013170     
 FOBSH| ACTIVE STATE =            3

 ENERGY| Total FORCE_EVAL ( MIXED ) energy (a.u.):             2.479437827126880

 FOBSH| CASE1: no hop and no trivial crossing
 ENTER integrator.F
 STEP NUMBER                  =           26
 CPU TIME [s]                 =    5.8154571801424026E-002   9.3711415950495466E-002

 *******************************************************************************
 ENSEMBLE TYPE                =                                              NVE
 STEP NUMBER                  =                                               26
 TIME [fs]                    =                                         2.600000
 CONSERVED QUANTITY [hartree] =                               0.485846467581E+01

                                              INSTANTANEOUS             AVERAGES
 CPU TIME [s]                 =                        0.06                 0.09
 ENERGY DRIFT PER ATOM [K]    =          0.381419098425E-01  -0.204778783408E-01
 POTENTIAL ENERGY[hartree]    =          0.247943782713E+01   0.232995755467E+01
 KINETIC ENERGY [hartree]     =          0.237902684868E+01   0.252833920580E+01
 TEMPERATURE [K]              =                     557.090              592.054
 *******************************************************************************

 FOBSH| Put former active state           3 in new active state           3
 RANDOM_NUMBER_HOPPING_PROBA  0.10128127016744209     
 FOBSH| ACTIVE STATE =            3

 ENERGY| Total FORCE_EVAL ( MIXED ) energy (a.u.):             2.501140684794386

 FOBSH| CASE1: no hop and no trivial crossing
 ENTER integrator.F
 STEP NUMBER                  =           27
 CPU TIME [s]                 =    5.6973716244101524E-002   9.2350760405814206E-002

 *******************************************************************************
 ENSEMBLE TYPE                =                                              NVE
 STEP NUMBER                  =                                               27
 TIME [fs]                    =                                         2.700000
 CONSERVED QUANTITY [hartree] =                               0.485848655785E+01

                                              INSTANTANEOUS             AVERAGES
 CPU TIME [s]                 =                        0.06                 0.09
 ENERGY DRIFT PER ATOM [K]    =          0.458194583567E-01  -0.180224214261E-01
 POTENTIAL ENERGY[hartree]    =          0.250114068479E+01   0.233629767060E+01
 KINETIC ENERGY [hartree]     =          0.235734587305E+01   0.252200611940E+01
 TEMPERATURE [K]              =                     552.013              590.571
 *******************************************************************************

 FOBSH| Put former active state           3 in new active state           3
 RANDOM_NUMBER_HOPPING_PROBA  0.11867251146675144     
 FOBSH| ACTIVE STATE =            3

 ENERGY| Total FORCE_EVAL ( MIXED ) energy (a.u.):             2.521695841476407

 FOBSH| CASE1: no hop and no trivial crossing
 ENTER integrator.F
 STEP NUMBER                  =           28
 CPU TIME [s]                 =    7.0413032546639442E-002   9.1567270125129385E-002

 *******************************************************************************
 ENSEMBLE TYPE                =                                              NVE
 STEP NUMBER                  =                                               28
 TIME [fs]                    =                                         2.800000
 CONSERVED QUANTITY [hartree] =                               0.485850748668E+01

                                              INSTANTANEOUS             AVERAGES
 CPU TIME [s]                 =                        0.07                 0.09
 ENERGY DRIFT PER ATOM [K]    =          0.531625630547E-01  -0.154801005518E-01
 POTENTIAL ENERGY[hartree]    =          0.252169584148E+01   0.234291903384E+01
 KINETIC ENERGY [hartree]     =          0.233681164520E+01   0.251539203104E+01
 TEMPERATURE [K]              =                     547.205              589.023
 *******************************************************************************

 FOBSH| Put former active state           3 in new active state           3
 RANDOM_NUMBER_HOPPING_PROBA  0.89111076769210396     
 FOBSH| ACTIVE STATE =            3

 ENERGY| Total FORCE_EVAL ( MIXED ) energy (a.u.):             2.540764648614571

 FOBSH| CASE1: no hop and no trivial crossing
 ENTER integrator.F
 STEP NUMBER                  =           29
 CPU TIME [s]                 =    5.7316193357110023E-002   9.0386198512439064E-002

 *******************************************************************************
 ENSEMBLE TYPE                =                                              NVE
 STEP NUMBER                  =                                               29
 TIME [fs]                    =                                         2.900000
 CONSERVED QUANTITY [hartree] =                               0.485852717602E+01

                                              INSTANTANEOUS             AVERAGES
 CPU TIME [s]                 =                        0.06                 0.09
 ENERGY DRIFT PER ATOM [K]    =          0.600707815170E-01  -0.128748977218E-01
 POTENTIAL ENERGY[hartree]    =          0.254076464861E+01   0.234974129642E+01
 KINETIC ENERGY [hartree]     =          0.231776252741E+01   0.250857722057E+01
 TEMPERATURE [K]              =                     542.744              587.427
 *******************************************************************************

 FOBSH| Put former active state           3 in new active state           3
 RANDOM_NUMBER_HOPPING_PROBA  0.27596159707755136     
 FOBSH| ACTIVE STATE =            3

 ENERGY| Total FORCE_EVAL ( MIXED ) energy (a.u.):             2.558028315978932

 FOBSH| CASE1: no hop and no trivial crossing
 ENTER integrator.F
 STEP NUMBER                  =           30
 CPU TIME [s]                 =    7.0159755647182465E-002   8.9711983750263846E-002

 *******************************************************************************
 ENSEMBLE TYPE                =                                              NVE
 STEP NUMBER                  =                                               30
 TIME [fs]                    =                                         3.000000
 CONSERVED QUANTITY [hartree] =                               0.485854536275E+01

                                              INSTANTANEOUS             AVERAGES
 CPU TIME [s]                 =                        0.07                 0.09
 ENERGY DRIFT PER ATOM [K]    =          0.664517890785E-01  -0.102306748285E-01
 POTENTIAL ENERGY[hartree]    =          0.255802831598E+01   0.235668419707E+01
 KINETIC ENERGY [hartree]     =          0.230051704677E+01   0.250164188144E+01
 TEMPERATURE [K]              =                     538.706              585.803
 *******************************************************************************

 FOBSH| *** OFF-DIAGONAL GRADIENT CALCULATION
 FOBSH| Put former active state           3 in new active state           3
 RANDOM_NUMBER_HOPPING_PROBA  0.13795193207776218     
 FOBSH| ACTIVE STATE =            3

 ENERGY| Total FORCE_EVAL ( MIXED ) energy (a.u.):             2.573192219543011

 FOBSH| CASE1: no hop and no trivial crossing
 ENTER integrator.F
 STEP NUMBER                  =           31
 CPU TIME [s]                 =   0.17050091363489628        9.2318078262671341E-002

 *******************************************************************************
 ENSEMBLE TYPE                =                                              NVE
 STEP NUMBER                  =                                               31
 TIME [fs]                    =                                         3.100000
 CONSERVED QUANTITY [hartree] =                               0.485856180331E+01

                                              INSTANTANEOUS             AVERAGES
 CPU TIME [s]                 =                        0.17                 0.09
 ENERGY DRIFT PER ATOM [K]    =          0.722201354946E-01  -0.757097126968E-02
 POTENTIAL ENERGY[hartree]    =          0.257319221954E+01   0.236366832683E+01
 KINETIC ENERGY [hartree]     =          0.228536958377E+01   0.249466535571E+01
 TEMPERATURE [K]              =                     535.159              584.169
 *******************************************************************************

 FOBSH| Put former active state           3 in new active state           3
 RANDOM_NUMBER_HOPPING_PROBA  0.17326673237594786     
 FOBSH| ACTIVE STATE =            3

 ENERGY| Total FORCE_EVAL ( MIXED ) energy (a.u.):             2.585989961524618

 FOBSH| CASE1: no hop and no trivial crossing
 ENTER integrator.F
 STEP NUMBER                  =           32
 CPU TIME [s]                 =    5.6840712204575539E-002   9.1209410573355854E-002

 *******************************************************************************
 ENSEMBLE TYPE                =                                              NVE
 STEP NUMBER                  =                                               32
 TIME [fs]                    =                                         3.200000
 CONSERVED QUANTITY [hartree] =                               0.485857624420E+01

                                              INSTANTANEOUS             AVERAGES
 CPU TIME [s]                 =                        0.06                 0.09
 ENERGY DRIFT PER ATOM [K]    =          0.772868766884E-01  -0.491916352099E-02
 POTENTIAL ENERGY[hartree]    =          0.258598996152E+01   0.237061587791E+01
 KINETIC ENERGY [hartree]     =          0.227258628268E+01   0.248772538468E+01
 TEMPERATURE [K]              =                     532.165              582.544
 *******************************************************************************

 FOBSH| Put former active state           3 in new active state           3
 RANDOM_NUMBER_HOPPING_PROBA  0.45948640433446791     
 FOBSH| ACTIVE STATE =            3

 ENERGY| Total FORCE_EVAL ( MIXED ) energy (a.u.):             2.596187099732668

 FOBSH| CASE1: no hop and no trivial crossing
 ENTER integrator.F
 STEP NUMBER                  =           33
 CPU TIME [s]                 =    6.9829100742936134E-002   9.0561522396676475E-002

 *******************************************************************************
 ENSEMBLE TYPE                =                                              NVE
 STEP NUMBER                  =                                               33
 TIME [fs]                    =                                         3.300000
 CONSERVED QUANTITY [hartree] =                               0.485858849836E+01

                                              INSTANTANEOUS             AVERAGES
 CPU TIME [s]                 =                        0.07                 0.09
 ENERGY DRIFT PER ATOM [K]    =          0.815863787803E-01  -0.229778345126E-02
 POTENTIAL ENERGY[hartree]    =          0.259618709973E+01   0.237745136949E+01
 KINETIC ENERGY [hartree]     =          0.226240139862E+01   0.248089738510E+01
 TEMPERATURE [K]              =                     529.781              580.945
 *******************************************************************************

 FOBSH| New map:            1           2           3           0           0           6           7           8
 FOBSH! New map again:           1           2           3           0           0           6           7           8
 FOBSH| Put former active state           3 in new active state           3
 RANDOM_NUMBER_HOPPING_PROBA  0.93473997256390629     
 FOBSH| ACTIVE STATE =            3

 ENERGY| Total FORCE_EVAL ( MIXED ) energy (a.u.):             2.603584263250867

 FOBSH| CASE1: no hop and no trivial crossing
 ENTER integrator.F
 STEP NUMBER                  =           34
 CPU TIME [s]                 =    5.7820631191134453E-002   8.9598555008278166E-002

 *******************************************************************************
 ENSEMBLE TYPE                =                                              NVE
 STEP NUMBER                  =                                               34
 TIME [fs]                    =                                         3.400000
 CONSERVED QUANTITY [hartree] =                               0.485859838264E+01

                                              INSTANTANEOUS             AVERAGES
 CPU TIME [s]                 =                        0.06                 0.09
 ENERGY DRIFT PER ATOM [K]    =          0.850543872467E-01   0.271398039860E-03
 POTENTIAL ENERGY[hartree]    =          0.260358426325E+01   0.238410233695E+01
 KINETIC ENERGY [hartree]     =          0.225501411939E+01   0.247425375964E+01
 TEMPERATURE [K]              =                     528.051              579.389
 *******************************************************************************

 FOBSH| New map:            1           2           3           0           0           6           7           8
 FOBSH! New map again:           1           2           3           0           0           6           7           8
 FOBSH| Put former active state           3 in new active state           3
 RANDOM_NUMBER_HOPPING_PROBA  0.22829865023636245     
 FOBSH| ACTIVE STATE =            3

 ENERGY| Total FORCE_EVAL ( MIXED ) energy (a.u.):             2.608019977280443

 FOBSH| CASE1: no hop and no trivial crossing
 ENTER integrator.F
 STEP NUMBER                  =           35
 CPU TIME [s]                 =    6.9822607561945915E-002   8.9033527938382956E-002

 *******************************************************************************
 ENSEMBLE TYPE                =                                              NVE
 STEP NUMBER                  =                                               35
 TIME [fs]                    =                                         3.500000
 CONSERVED QUANTITY [hartree] =                               0.485860575823E+01

                                              INSTANTANEOUS             AVERAGES
 CPU TIME [s]                 =                        0.07                 0.09
 ENERGY DRIFT PER ATOM [K]    =          0.876421890909E-01   0.276770635560E-02
 POTENTIAL ENERGY[hartree]    =          0.260801997728E+01   0.239049998382E+01
 KINETIC ENERGY [hartree]     =          0.225058578095E+01   0.246786324596E+01
 TEMPERATURE [K]              =                     527.014              577.893
 *******************************************************************************

 FOBSH| Put former active state           3 in new active state           3
 RANDOM_NUMBER_HOPPING_PROBA  0.59718606230213800     
 FOBSH| ACTIVE STATE =            3

 ENERGY| Total FORCE_EVAL ( MIXED ) energy (a.u.):             2.609372938418997

 FOBSH| CASE1: no hop and no trivial crossing
 ENTER integrator.F
 STEP NUMBER                  =           36
 CPU TIME [s]                 =    5.7022619992494583E-002   8.8144336050997155E-002

 *******************************************************************************
 ENSEMBLE TYPE                =                                              NVE
 STEP NUMBER                  =                                               36
 TIME [fs]                    =                                         3.600000
 CONSERVED QUANTITY [hartree] =                               0.485861051964E+01

                                              INSTANTANEOUS             AVERAGES
 CPU TIME [s]                 =                        0.06                 0.09
 ENERGY DRIFT PER ATOM [K]    =          0.893127834652E-01   0.517173627531E-02
 POTENTIAL ENERGY[hartree]    =          0.260937293842E+01   0.239657978811E+01
 KINETIC ENERGY [hartree]     =          0.224923758122E+01   0.246179031083E+01
 TEMPERATURE [K]              =                     526.698              576.471
 *******************************************************************************

 FOBSH| Put former active state           3 in new active state           3
 RANDOM_NUMBER_HOPPING_PROBA  0.67469586020725292     
 FOBSH| ACTIVE STATE =            3

 ENERGY| Total FORCE_EVAL ( MIXED ) energy (a.u.):             2.607563720873553

 FOBSH| CASE1: no hop and no trivial crossing
 ENTER integrator.F
 STEP NUMBER                  =           37
 CPU TIME [s]                 =    5.7118244469165802E-002   8.7305793035271986E-002

 *******************************************************************************
 ENSEMBLE TYPE                =                                              NVE
 STEP NUMBER                  =                                               37
 TIME [fs]                    =                                         3.700000
 CONSERVED QUANTITY [hartree] =                               0.485861258153E+01

                                              INSTANTANEOUS             AVERAGES
 CPU TIME [s]                 =                        0.06                 0.09
 ENERGY DRIFT PER ATOM [K]    =          0.900362178261E-01   0.746537091182E-02
 POTENTIAL ENERGY[hartree]    =          0.260756372087E+01   0.240228205656E+01
 KINETIC ENERGY [hartree]     =          0.225104886065E+01   0.245609459596E+01
 TEMPERATURE [K]              =                     527.122              575.137
 *******************************************************************************

 FOBSH| Put former active state           3 in new active state           3
 RANDOM_NUMBER_HOPPING_PROBA   5.6658176887990165E-002
 FOBSH| ACTIVE STATE =            3

 ENERGY| Total FORCE_EVAL ( MIXED ) energy (a.u.):             2.602556016945420

 FOBSH| CASE1: no hop and no trivial crossing
 ENTER integrator.F
 STEP NUMBER                  =           38
 CPU TIME [s]                 =    6.9177361205220222E-002   8.6828729039744298E-002

 *******************************************************************************
 ENSEMBLE TYPE                =                                              NVE
 STEP NUMBER                  =                                               38
 TIME [fs]                    =                                         3.800000
 CONSERVED QUANTITY [hartree] =                               0.485861193213E+01

                                              INSTANTANEOUS             AVERAGES
 CPU TIME [s]                 =                        0.07                 0.09
 ENERGY DRIFT PER ATOM [K]    =          0.898083690228E-01   0.963229191474E-02
 POTENTIAL ENERGY[hartree]    =          0.260255601695E+01   0.240755242394E+01
 KINETIC ENERGY [hartree]     =          0.225605591518E+01   0.245083042015E+01
 TEMPERATURE [K]              =                     528.295              573.904
 *******************************************************************************

 FOBSH| Put former active state           3 in new active state           3
 RANDOM_NUMBER_HOPPING_PROBA  0.42939750927376608     
 FOBSH| ACTIVE STATE =            3

 ENERGY| Total FORCE_EVAL ( MIXED ) energy (a.u.):             2.594357201942305

 FOBSH| CASE1: no hop and no trivial crossing
 ENTER integrator.F
 STEP NUMBER                  =           39
 CPU TIME [s]                 =    5.7403348386287689E-002   8.6074232099912079E-002

 *******************************************************************************
 ENSEMBLE TYPE                =                                              NVE
 STEP NUMBER                  =                                               39
 TIME [fs]                    =                                         3.900000
 CONSERVED QUANTITY [hartree] =                               0.485860854706E+01

                                              INSTANTANEOUS             AVERAGES
 CPU TIME [s]                 =                        0.06                 0.09
 ENERGY DRIFT PER ATOM [K]    =          0.886206819892E-01   0.116576352500E-01
 POTENTIAL ENERGY[hartree]    =          0.259435720194E+01   0.241234229004E+01
 KINETIC ENERGY [hartree]     =          0.226425134512E+01   0.244604634130E+01
 TEMPERATURE [K]              =                     530.214              572.784
 *******************************************************************************

 FOBSH| Put former active state           3 in new active state           3
 RANDOM_NUMBER_HOPPING_PROBA  0.38368037990422899     
 FOBSH| ACTIVE STATE =            3

 ENERGY| Total FORCE_EVAL ( MIXED ) energy (a.u.):             2.583018466747686

 FOBSH| CASE1: no hop and no trivial crossing
 ENTER integrator.F
 STEP NUMBER                  =           40
 CPU TIME [s]                 =    5.7089023292064667E-002   8.5349601879715908E-002

 *******************************************************************************
 ENSEMBLE TYPE                =                                              NVE
 STEP NUMBER                  =                                               40
 TIME [fs]                    =                                         4.000000
 CONSERVED QUANTITY [hartree] =                               0.485860247334E+01

                                              INSTANTANEOUS             AVERAGES
 CPU TIME [s]                 =                        0.06                 0.09
 ENERGY DRIFT PER ATOM [K]    =          0.864896508038E-01   0.135284356388E-01
 POTENTIAL ENERGY[hartree]    =          0.258301846675E+01   0.241660919446E+01
 KINETIC ENERGY [hartree]     =          0.227558400659E+01   0.244178478294E+01
 TEMPERATURE [K]              =                     532.867              571.786
 *******************************************************************************

 FOBSH| *** OFF-DIAGONAL GRADIENT CALCULATION
 FOBSH| Put former active state           3 in new active state           3
 RANDOM_NUMBER_HOPPING_PROBA   9.6583165714819563E-002
 FOBSH| ACTIVE STATE =            3

 ENERGY| Total FORCE_EVAL ( MIXED ) energy (a.u.):             2.568634254749394

 FOBSH| CASE1: no hop and no trivial crossing
 ENTER integrator.F
 STEP NUMBER                  =           41
 CPU TIME [s]                 =   0.17595303989946842        8.7559441831417187E-002

 *******************************************************************************
 ENSEMBLE TYPE                =                                              NVE
 STEP NUMBER                  =                                               41
 TIME [fs]                    =                                         4.100000
 CONSERVED QUANTITY [hartree] =                               0.485859377397E+01

                                              INSTANTANEOUS             AVERAGES
 CPU TIME [s]                 =                        0.18                 0.09
 ENERGY DRIFT PER ATOM [K]    =          0.834373839876E-01   0.152335319400E-01
 POTENTIAL ENERGY[hartree]    =          0.256863425475E+01   0.242031712276E+01
 KINETIC ENERGY [hartree]     =          0.228995951922E+01   0.243808172772E+01
 TEMPERATURE [K]              =                     536.234              570.919
 *******************************************************************************

 FOBSH| Put former active state           3 in new active state           3
 RANDOM_NUMBER_HOPPING_PROBA  0.13946919027007920     
 FOBSH| ACTIVE STATE =            3

 ENERGY| Total FORCE_EVAL ( MIXED ) energy (a.u.):             2.551341222382152

 FOBSH| CASE1: no hop and no trivial crossing
 ENTER integrator.F
 STEP NUMBER                  =           42
 CPU TIME [s]                 =    5.7088332250714302E-002   8.6833939222352829E-002

 *******************************************************************************
 ENSEMBLE TYPE                =                                              NVE
 STEP NUMBER                  =                                               42
 TIME [fs]                    =                                         4.200000
 CONSERVED QUANTITY [hartree] =                               0.485858254750E+01

                                              INSTANTANEOUS             AVERAGES
 CPU TIME [s]                 =                        0.06                 0.09
 ENERGY DRIFT PER ATOM [K]    =          0.794984557027E-01   0.167636491725E-01
 POTENTIAL ENERGY[hartree]    =          0.255134122238E+01   0.242343674418E+01
 KINETIC ENERGY [hartree]     =          0.230724132511E+01   0.243496648004E+01
 TEMPERATURE [K]              =                     540.281              570.190
 *******************************************************************************

 FOBSH| Put former active state           3 in new active state           3
 RANDOM_NUMBER_HOPPING_PROBA  0.32230525371606761     
 FOBSH| ACTIVE STATE =            3

 ENERGY| Total FORCE_EVAL ( MIXED ) energy (a.u.):             2.531316603494988

 FOBSH| CASE1: no hop and no trivial crossing
 ENTER integrator.F
 STEP NUMBER                  =           43
 CPU TIME [s]                 =    7.6371574774384499E-002   8.6590628421237284E-002

 *******************************************************************************
 ENSEMBLE TYPE                =                                              NVE
 STEP NUMBER                  =                                               43
 TIME [fs]                    =                                         4.300000
 CONSERVED QUANTITY [hartree] =                               0.485856893133E+01

                                              INSTANTANEOUS             AVERAGES
 CPU TIME [s]                 =                        0.08                 0.09
 ENERGY DRIFT PER ATOM [K]    =          0.747210796055E-01   0.181114963918E-01
 POTENTIAL ENERGY[hartree]    =          0.253131660349E+01   0.242594557812E+01
 KINETIC ENERGY [hartree]     =          0.232725232784E+01   0.243246149976E+01
 TEMPERATURE [K]              =                     544.966              569.603
 *******************************************************************************

 FOBSH| Put former active state           3 in new active state           3
 RANDOM_NUMBER_HOPPING_PROBA  0.17560467299208327     
 FOBSH| ACTIVE STATE =            3

 ENERGY| Total FORCE_EVAL ( MIXED ) energy (a.u.):             2.508775973371012

 FOBSH| CASE1: no hop and no trivial crossing
 ENTER integrator.F
 STEP NUMBER                  =           44
 CPU TIME [s]                 =    5.7193731889128685E-002   8.5922517136416632E-002

 *******************************************************************************
 ENSEMBLE TYPE                =                                              NVE
 STEP NUMBER                  =                                               44
 TIME [fs]                    =                                         4.400000
 CONSERVED QUANTITY [hartree] =                               0.485855308776E+01

                                              INSTANTANEOUS             AVERAGES
 CPU TIME [s]                 =                        0.06                 0.09
 ENERGY DRIFT PER ATOM [K]    =          0.691621927083E-01   0.192717394899E-01
 POTENTIAL ENERGY[hartree]    =          0.250877597337E+01   0.242782808710E+01
 KINETIC ENERGY [hartree]     =          0.234977711439E+01   0.243058230918E+01
 TEMPERATURE [K]              =                     550.241              569.163
 *******************************************************************************

 FOBSH| Put former active state           3 in new active state           3
 RANDOM_NUMBER_HOPPING_PROBA  0.78778040149675777     
 FOBSH| ACTIVE STATE =            3

 ENERGY| Total FORCE_EVAL ( MIXED ) energy (a.u.):             2.483970597892217

 FOBSH| CASE1: no hop and no trivial crossing
 ENTER integrator.F
 STEP NUMBER                  =           45
 CPU TIME [s]                 =    6.4816292375326157E-002   8.5453489919503509E-002

 *******************************************************************************
 ENSEMBLE TYPE                =                                              NVE
 STEP NUMBER                  =                                               45
 TIME [fs]                    =                                         4.500000
 CONSERVED QUANTITY [hartree] =                               0.485853521516E+01

                                              INSTANTANEOUS             AVERAGES
 CPU TIME [s]                 =                        0.06                 0.09
 ENERGY DRIFT PER ATOM [K]    =          0.628913989681E-01   0.202410652561E-01
 POTENTIAL ENERGY[hartree]    =          0.248397059789E+01   0.242907569845E+01
 KINETIC ENERGY [hartree]     =          0.237456461727E+01   0.242933747158E+01
 TEMPERATURE [K]              =                     556.045              568.871
 *******************************************************************************

 FOBSH| Put former active state           3 in new active state           3
 RANDOM_NUMBER_HOPPING_PROBA  0.95198882604336277     
 FOBSH| ACTIVE STATE =            3

 ENERGY| Total FORCE_EVAL ( MIXED ) energy (a.u.):             2.457184356495841

 FOBSH| CASE1: no hop and no trivial crossing
 ENTER integrator.F
 STEP NUMBER                  =           46
 CPU TIME [s]                 =    5.7164724916219711E-002   8.4838516767258204E-002

 *******************************************************************************
 ENSEMBLE TYPE                =                                              NVE
 STEP NUMBER                  =                                               46
 TIME [fs]                    =                                         4.600000
 CONSERVED QUANTITY [hartree] =                               0.485851554581E+01

                                              INSTANTANEOUS             AVERAGES
 CPU TIME [s]                 =                        0.06                 0.08
 ENERGY DRIFT PER ATOM [K]    =          0.559901974637E-01   0.210182203041E-01
 POTENTIAL ENERGY[hartree]    =          0.245718435650E+01   0.242968675624E+01
 KINETIC ENERGY [hartree]     =          0.240133118932E+01   0.242872863936E+01
 TEMPERATURE [K]              =                     562.313              568.729
 *******************************************************************************

 FOBSH| Put former active state           3 in new active state           3
 RANDOM_NUMBER_HOPPING_PROBA  0.60481166532282404     
 FOBSH| ACTIVE STATE =            3

 ENERGY| Total FORCE_EVAL ( MIXED ) energy (a.u.):             2.428730131049210

 FOBSH| CASE1: no hop and no trivial crossing
 ENTER integrator.F
 STEP NUMBER                  =           47
 CPU TIME [s]                 =    5.6875675916671753E-002   8.4243562706607419E-002

 *******************************************************************************
 ENSEMBLE TYPE                =                                              NVE
 STEP NUMBER                  =                                               47
 TIME [fs]                    =                                         4.700000
 CONSERVED QUANTITY [hartree] =                               0.485849431189E+01

                                              INSTANTANEOUS             AVERAGES
 CPU TIME [s]                 =                        0.06                 0.08
 ENERGY DRIFT PER ATOM [K]    =          0.485400479209E-01   0.216037911045E-01
 POTENTIAL ENERGY[hartree]    =          0.242873013105E+01   0.242966640251E+01
 KINETIC ENERGY [hartree]     =          0.242976418084E+01   0.242875067216E+01
 TEMPERATURE [K]              =                     568.971              568.734
 *******************************************************************************

 FOBSH| Put former active state           3 in new active state           3
 RANDOM_NUMBER_HOPPING_PROBA  0.79196789831140157     
 FOBSH| ACTIVE STATE =            3

 ENERGY| Total FORCE_EVAL ( MIXED ) energy (a.u.):             2.398945951039876

 FOBSH| CASE1: no hop and no trivial crossing
 ENTER integrator.F
 STEP NUMBER                  =           48
 CPU TIME [s]                 =    7.0240562781691551E-002   8.3951833541504997E-002

 *******************************************************************************
 ENSEMBLE TYPE                =                                              NVE
 STEP NUMBER                  =                                               48
 TIME [fs]                    =                                         4.800000
 CONSERVED QUANTITY [hartree] =                               0.485847178045E+01

                                              INSTANTANEOUS             AVERAGES
 CPU TIME [s]                 =                        0.07                 0.08
 ENERGY DRIFT PER ATOM [K]    =          0.406346494246E-01   0.220002673195E-01
 POTENTIAL ENERGY[hartree]    =          0.239894595104E+01   0.242902639310E+01
 KINETIC ENERGY [hartree]     =          0.245952582941E+01   0.242939182127E+01
 TEMPERATURE [K]              =                     575.941              568.884
 *******************************************************************************

 FOBSH| Put former active state           3 in new active state           3
 RANDOM_NUMBER_HOPPING_PROBA  0.35144938693881794     
 FOBSH| ACTIVE STATE =            3

 ENERGY| Total FORCE_EVAL ( MIXED ) energy (a.u.):             2.368190870631643

 FOBSH| CASE1: no hop and no trivial crossing
 ENTER integrator.F
 STEP NUMBER                  =           49
 CPU TIME [s]                 =    6.0203287750482559E-002   8.3467169341688213E-002

 *******************************************************************************
 ENSEMBLE TYPE                =                                              NVE
 STEP NUMBER                  =                                               49
 TIME [fs]                    =                                         4.900000
 CONSERVED QUANTITY [hartree] =                               0.485844820865E+01

                                              INSTANTANEOUS             AVERAGES
 CPU TIME [s]                 =                        0.06                 0.08
 ENERGY DRIFT PER ATOM [K]    =          0.323642332703E-01   0.222117768287E-01
 POTENTIAL ENERGY[hartree]    =          0.236819087063E+01   0.242778485183E+01
 KINETIC ENERGY [hartree]     =          0.249025733802E+01   0.243063397467E+01
 TEMPERATURE [K]              =                     583.137              569.175
 *******************************************************************************

 FOBSH| Put former active state           3 in new active state           3
 RANDOM_NUMBER_HOPPING_PROBA   4.6736400276695213E-002
 FOBSH| ACTIVE STATE =            3

 ENERGY| Total FORCE_EVAL ( MIXED ) energy (a.u.):             2.336840718804603

 FOBSH| CASE1: no hop and no trivial crossing
 ENTER integrator.F
 STEP NUMBER                  =           50
 CPU TIME [s]                 =    7.4459053575992584E-002   8.3287007026374302E-002

 *******************************************************************************
 ENSEMBLE TYPE                =                                              NVE
 STEP NUMBER                  =                                               50
 TIME [fs]                    =                                         5.000000
 CONSERVED QUANTITY [hartree] =                               0.485842383090E+01

                                              INSTANTANEOUS             AVERAGES
 CPU TIME [s]                 =                        0.07                 0.08
 ENERGY DRIFT PER ATOM [K]    =          0.238110363017E-01   0.222437620181E-01
 POTENTIAL ENERGY[hartree]    =          0.233684071880E+01   0.242596596917E+01
 KINETIC ENERGY [hartree]     =          0.252158311209E+01   0.243245295742E+01
[...]
 KINETIC ENERGY [hartree]     =          0.237553165041E+01   0.246723281412E+01
 TEMPERATURE [K]              =                     556.272              577.745
 *******************************************************************************

 FOBSH| *** OFF-DIAGONAL GRADIENT CALCULATION
 FOBSH| Put former active state           1 in new active state           1
 RANDOM_NUMBER_HOPPING_PROBA  0.96979538647398367     
 FOBSH| ACTIVE STATE =            1

 ENERGY| Total FORCE_EVAL ( MIXED ) energy (a.u.):             2.513686052320645

 FOBSH| CASE1: no hop and no trivial crossing
 ENTER integrator.F
 STEP NUMBER                  =          191
 CPU TIME [s]                 =   0.11652441695332527        8.3139909441090398E-002

 *******************************************************************************
 ENSEMBLE TYPE                =                                              NVE
 STEP NUMBER                  =                                              191
 TIME [fs]                    =                                        19.100000
 CONSERVED QUANTITY [hartree] =                               0.485842578512E+01

                                              INSTANTANEOUS             AVERAGES
 CPU TIME [s]                 =                        0.12                 0.08
 ENERGY DRIFT PER ATOM [K]    =          0.244966946827E-01   0.868646037111E-02
 POTENTIAL ENERGY[hartree]    =          0.251368605232E+01   0.239178912025E+01
 KINETIC ENERGY [hartree]     =          0.234473973280E+01   0.246659148909E+01
 TEMPERATURE [K]              =                     549.061              577.595
 *******************************************************************************

 FOBSH| Put former active state           1 in new active state           1
 RANDOM_NUMBER_HOPPING_PROBA  0.34074259243776539     
 FOBSH| ACTIVE STATE =            1

 ENERGY| Total FORCE_EVAL ( MIXED ) energy (a.u.):             2.544015230077035

 FOBSH| CASE1: no hop and no trivial crossing
 ENTER integrator.F
 STEP NUMBER                  =          192
 CPU TIME [s]                 =    3.0908742919564247E-002   8.2867872115457444E-002

 *******************************************************************************
 ENSEMBLE TYPE                =                                              NVE
 STEP NUMBER                  =                                              192
 TIME [fs]                    =                                        19.200000
 CONSERVED QUANTITY [hartree] =                               0.485844969746E+01

                                              INSTANTANEOUS             AVERAGES
 CPU TIME [s]                 =                        0.03                 0.08
 ENERGY DRIFT PER ATOM [K]    =          0.328865958165E-01   0.881250274322E-02
 POTENTIAL ENERGY[hartree]    =          0.254401523008E+01   0.239258196457E+01
 KINETIC ENERGY [hartree]     =          0.231443446738E+01   0.246579900460E+01
 TEMPERATURE [K]              =                     541.965              577.410
 *******************************************************************************

 FOBSH| Put former active state           1 in new active state           1
 RANDOM_NUMBER_HOPPING_PROBA  0.54636703167211798     
 FOBSH| ACTIVE STATE =            1

 ENERGY| Total FORCE_EVAL ( MIXED ) energy (a.u.):             2.573479609621630

 FOBSH| CASE1: no hop and no trivial crossing
 ENTER integrator.F
 STEP NUMBER                  =          193
 CPU TIME [s]                 =    3.0946627259254456E-002   8.2598850121383863E-002

 *******************************************************************************
 ENSEMBLE TYPE                =                                              NVE
 STEP NUMBER                  =                                              193
 TIME [fs]                    =                                        19.300000
 CONSERVED QUANTITY [hartree] =                               0.485847308091E+01

                                              INSTANTANEOUS             AVERAGES
 CPU TIME [s]                 =                        0.03                 0.08
 ENERGY DRIFT PER ATOM [K]    =          0.410909314270E-01   0.897974848770E-02
 POTENTIAL ENERGY[hartree]    =          0.257347960962E+01   0.239351925807E+01
 KINETIC ENERGY [hartree]     =          0.228499347129E+01   0.246486218837E+01
 TEMPERATURE [K]              =                     535.071              577.190
 *******************************************************************************

 FOBSH| Put former active state           1 in new active state           1
 RANDOM_NUMBER_HOPPING_PROBA  0.62264551234204946     
 FOBSH| ACTIVE STATE =            1

 ENERGY| Total FORCE_EVAL ( MIXED ) energy (a.u.):             2.601709756073646

 FOBSH| CASE1: no hop and no trivial crossing
 ENTER integrator.F
 STEP NUMBER                  =          194
 CPU TIME [s]                 =    2.8760103508830070E-002   8.2321330808948018E-002

 *******************************************************************************
 ENSEMBLE TYPE                =                                              NVE
 STEP NUMBER                  =                                              194
 TIME [fs]                    =                                        19.400000
 CONSERVED QUANTITY [hartree] =                               0.485849564575E+01

                                              INSTANTANEOUS             AVERAGES
 CPU TIME [s]                 =                        0.03                 0.08
 ENERGY DRIFT PER ATOM [K]    =          0.490080476755E-01   0.918607992681E-02
 POTENTIAL ENERGY[hartree]    =          0.260170975607E+01   0.239459240497E+01
 KINETIC ENERGY [hartree]     =          0.225678588968E+01   0.246378963012E+01
 TEMPERATURE [K]              =                     528.466              576.939
 *******************************************************************************

 FOBSH| Put former active state           1 in new active state           1
 RANDOM_NUMBER_HOPPING_PROBA  0.38012573194367633     
 FOBSH| ACTIVE STATE =            1

 ENERGY| Total FORCE_EVAL ( MIXED ) energy (a.u.):             2.628349316635924

 FOBSH| CASE1: no hop and no trivial crossing
 ENTER integrator.F
 STEP NUMBER                  =          195
 CPU TIME [s]                 =    2.9151350259780884E-002   8.2048664242029209E-002

 *******************************************************************************
 ENSEMBLE TYPE                =                                              NVE
 STEP NUMBER                  =                                              195
 TIME [fs]                    =                                        19.500000
 CONSERVED QUANTITY [hartree] =                               0.485851711842E+01

                                              INSTANTANEOUS             AVERAGES
 CPU TIME [s]                 =                        0.03                 0.08
 ENERGY DRIFT PER ATOM [K]    =          0.565419643636E-01   0.942893061623E-02
 POTENTIAL ENERGY[hartree]    =          0.262834931664E+01   0.239579115836E+01
 KINETIC ENERGY [hartree]     =          0.223016780179E+01   0.246259156947E+01
 TEMPERATURE [K]              =                     522.232              576.658
 *******************************************************************************

 FOBSH| Put former active state           1 in new active state           1
 RANDOM_NUMBER_HOPPING_PROBA  0.88373341500213154     
 FOBSH| ACTIVE STATE =            1

 ENERGY| Total FORCE_EVAL ( MIXED ) energy (a.u.):             2.653059448029426

 FOBSH| CASE1: no hop and no trivial crossing
 ENTER integrator.F
 STEP NUMBER                  =          196
 CPU TIME [s]                 =    4.3905764818191528E-002   8.1854057612315748E-002

 *******************************************************************************
 ENSEMBLE TYPE                =                                              NVE
 STEP NUMBER                  =                                              196
 TIME [fs]                    =                                        19.600000
 CONSERVED QUANTITY [hartree] =                               0.485853722769E+01

                                              INSTANTANEOUS             AVERAGES
 CPU TIME [s]                 =                        0.04                 0.08
 ENERGY DRIFT PER ATOM [K]    =          0.635975164258E-01   0.970530095199E-02
 POTENTIAL ENERGY[hartree]    =          0.265305944803E+01   0.239710375167E+01
 KINETIC ENERGY [hartree]     =          0.220547777966E+01   0.246127976442E+01
 TEMPERATURE [K]              =                     516.451              576.351
 *******************************************************************************

 FOBSH| Put former active state           1 in new active state           1
 RANDOM_NUMBER_HOPPING_PROBA  0.48606599939561634     
 FOBSH| ACTIVE STATE =            1

 ENERGY| Total FORCE_EVAL ( MIXED ) energy (a.u.):             2.675523046565683

 FOBSH| CASE1: no hop and no trivial crossing
 ENTER integrator.F
 STEP NUMBER                  =          197
 CPU TIME [s]                 =    6.6508345305919647E-002   8.1776160595532013E-002

 *******************************************************************************
 ENSEMBLE TYPE                =                                              NVE
 STEP NUMBER                  =                                              197
 TIME [fs]                    =                                        19.700000
 CONSERVED QUANTITY [hartree] =                               0.485855574345E+01

                                              INSTANTANEOUS             AVERAGES
 CPU TIME [s]                 =                        0.07                 0.08
 ENERGY DRIFT PER ATOM [K]    =          0.700939685994E-01   0.100118424121E-01
 POTENTIAL ENERGY[hartree]    =          0.267552304657E+01   0.239851704759E+01
 KINETIC ENERGY [hartree]     =          0.218303269688E+01   0.245986734275E+01
 TEMPERATURE [K]              =                     511.195              576.021
 *******************************************************************************

 FOBSH| Put former active state           1 in new active state           1
 RANDOM_NUMBER_HOPPING_PROBA  0.45438982907521647     
 FOBSH| ACTIVE STATE =            1

 ENERGY| Total FORCE_EVAL ( MIXED ) energy (a.u.):             2.695448601466083

 FOBSH| CASE1: no hop and no trivial crossing
 ENTER integrator.F
 STEP NUMBER                  =          198
 CPU TIME [s]                 =    5.4480401799082756E-002   8.1638303227873188E-002

 *******************************************************************************
 ENSEMBLE TYPE                =                                              NVE
 STEP NUMBER                  =                                              198
 TIME [fs]                    =                                        19.800000
 CONSERVED QUANTITY [hartree] =                               0.485857243858E+01

                                              INSTANTANEOUS             AVERAGES
 CPU TIME [s]                 =                        0.05                 0.08
 ENERGY DRIFT PER ATOM [K]    =          0.759516335090E-01   0.103448716601E-01
 POTENTIAL ENERGY[hartree]    =          0.269544860147E+01   0.240001670190E+01
 KINETIC ENERGY [hartree]     =          0.216312383711E+01   0.245836863818E+01
 TEMPERATURE [K]              =                     506.533              575.670
 *******************************************************************************

 FOBSH| Put former active state           1 in new active state           1
 RANDOM_NUMBER_HOPPING_PROBA  0.22230397310089936     
 FOBSH| ACTIVE STATE =            1

 ENERGY| Total FORCE_EVAL ( MIXED ) energy (a.u.):             2.712573781867277

 FOBSH| CASE1: no hop and no trivial crossing
 ENTER integrator.F
 STEP NUMBER                  =          199
 CPU TIME [s]                 =    5.6405520066618919E-002   8.1511505322540243E-002

 *******************************************************************************
 ENSEMBLE TYPE                =                                              NVE
 STEP NUMBER                  =                                              199
 TIME [fs]                    =                                        19.900000
 CONSERVED QUANTITY [hartree] =                               0.485858713842E+01

                                              INSTANTANEOUS             AVERAGES
 CPU TIME [s]                 =                        0.06                 0.08
 ENERGY DRIFT PER ATOM [K]    =          0.811092319698E-01   0.107004714606E-01
 POTENTIAL ENERGY[hartree]    =          0.271257378187E+01   0.240158734049E+01
 KINETIC ENERGY [hartree]     =          0.214601335656E+01   0.245679901365E+01
 TEMPERATURE [K]              =                     502.526              575.302
 *******************************************************************************

 FOBSH| Put former active state           1 in new active state           1
 RANDOM_NUMBER_HOPPING_PROBA  0.68205899113516100     
 FOBSH| ACTIVE STATE =            1

 ENERGY| Total FORCE_EVAL ( MIXED ) energy (a.u.):             2.726668420086352

 FOBSH| CASE1: no hop and no trivial crossing
 ENTER integrator.F
 STEP NUMBER                  =          200
 CPU TIME [s]                 =    5.8288495987653732E-002   8.1395390275865814E-002

 *******************************************************************************
 ENSEMBLE TYPE                =                                              NVE
 STEP NUMBER                  =                                              200
 TIME [fs]                    =                                        20.000000
 CONSERVED QUANTITY [hartree] =                               0.485859968935E+01

                                              INSTANTANEOUS             AVERAGES
 CPU TIME [s]                 =                        0.06                 0.08
 ENERGY DRIFT PER ATOM [K]    =          0.855128587699E-01   0.110745333972E-01
 POTENTIAL ENERGY[hartree]    =          0.272666842009E+01   0.240321274589E+01
 KINETIC ENERGY [hartree]     =          0.213193126926E+01   0.245517467493E+01
 TEMPERATURE [K]              =                     499.229              574.922
 *******************************************************************************


 -------------------------------------------------------------------------------
 -                                                                             -
 -                                DBCSR STATISTICS                             -
 -                                                                             -
 -------------------------------------------------------------------------------
 COUNTER                                    TOTAL       BLAS       SMM       ACC
 flops total                                    0       0.0%      0.0%      0.0%
 flops max/rank                                 0       0.0%      0.0%      0.0%
 matmuls inhomo. stacks                         0       0.0%      0.0%      0.0%
 matmuls total                                  0       0.0%      0.0%      0.0%
 number of processed stacks                     0       0.0%      0.0%      0.0%
 average stack size                                     0.0       0.0       0.0
 marketing flops                     0.000000E+00
 -------------------------------------------------------------------------------

 MEMORY| Estimated peak process memory [MiB]                                 104

 -------------------------------------------------------------------------------
 -                                                                             -
 -                           R E F E R E N C E S                               -
 -                                                                             -
 -------------------------------------------------------------------------------
 
 CP2K version 4.0 (Development Version), the CP2K developers group (2015).
 CP2K is freely available from https://www.cp2k.org/ .

 Borstnik, U; VandeVondele, J; Weber, V; Hutter, J. 
 PARALLEL COMPUTING, 40 (5-6), 47-58 (2014). 
 Sparse matrix multiplication: The distributed block-compressed sparse
 row library.
 http://dx.doi.org/10.1016/j.parco.2014.03.012


 Hutter, J; Iannuzzi, M; Schiffmann, F; VandeVondele, J. 
 WILEY INTERDISCIPLINARY REVIEWS-COMPUTATIONAL MOLECULAR SCIENCE, 4 (1), 15-25 (2014). 
 CP2K: atomistic simulations of condensed matter systems.
 http://dx.doi.org/10.1002/wcms.1159


 Frigo, M; Johnson, SG. 
 PROCEEDINGS OF THE IEEE, 93 (2), 216-231 (2005). 
 The design and implementation of FFTW3.
 http://dx.doi.org/10.1109/JPROC.2004.840301


 -------------------------------------------------------------------------------
 -                                                                             -
 -                                T I M I N G                                  -
 -                                                                             -
 -------------------------------------------------------------------------------
 SUBROUTINE                       CALLS  ASD         SELF TIME        TOTAL TIME
                                MAXIMUM       AVERAGE  MAXIMUM  AVERAGE  MAXIMUM
 CP2K                                 1  1.0    0.035    0.035   26.099   26.099
 qs_mol_dyn_low                       1  2.0    0.144    0.144   16.339   16.339
 velocity_verlet                    200  3.0    5.269    5.269   14.498   14.498
 fist_calc_energy_force             408  4.0    0.091    0.091    9.471    9.471
 topology_control                     3  4.0    0.005    0.005    9.119    9.119
 connectivity_control                 3  5.0    0.006    0.006    8.756    8.756
 read_topology_psf                  150  6.0    4.073    4.073    8.739    8.739
 force_nonbond                      204  5.0    7.263    7.263    7.263    7.263
 fist_create_force_env                2  2.0    0.000    0.000    6.597    6.597
 fist_init                            2  3.0    0.002    0.002    6.597    6.597
 parser_read_line                 12762  7.2    0.206    0.206    5.268    5.268
 parser_read_line_low               171  7.9    5.047    5.047    5.062    5.062
 mixed_create_force_env               1  2.0    0.001    0.001    3.098    3.098
 mixed_init                           1  3.0    0.000    0.000    3.098    3.098
 force_intra_control                408  5.0    1.427    1.427    1.427    1.427
 md_output                          200  3.0    0.001    0.001    1.403    1.403
 md_write_output                    201  4.0    1.281    1.281    1.355    1.355
 list_control                       204  5.0    0.045    0.045    0.671    0.671
 build_fist_neighbor_lists            3  5.7    0.000    0.000    0.626    0.626
 force_field_control                  2  4.0    0.000    0.000    0.572    0.572
 read_force_field_charmm              2  5.0    0.100    0.100    0.569    0.569
 build_neighbor_lists                 3  6.7    0.545    0.545    0.548    0.548
 -------------------------------------------------------------------------------

 The number of warnings for this run is : 1
 
 -------------------------------------------------------------------------------
  **** **** ******  **  PROGRAM ENDED AT                 2021-04-29 14:23:56.480
 ***** ** ***  *** **   PROGRAM RAN ON                   bulstake.phys.ucl.ac.uk
 **    ****   ******    PROGRAM RAN BY                                 sgiannini
 ***** **    ** ** **   PROGRAM PROCESS ID                                 12989
  **** **  *******  **  PROGRAM STOPPED IN /scratch/sgiannini/REG_TEST_MERGING/3
                                           7-071a0540f1_code_extension_V3_ADJ/ru
                                           n-fssh-MTS10
