#     Step Nr.          Time[fs]        Kin.[a.u.]          Temp[K]            Pot.[a.u.]        Cons Qty[a.u.]        UsedTime[s]
         0            0.000000         2.412123729       564.840579357         2.446232237         4.858355966         0.000000000
         1            0.100000         2.440711635       571.534932970         2.417622463         4.858334098         0.791359859
         2            0.200000         2.467926337       577.907727287         2.390387005         4.858313343         0.271247655
         3            0.300000         2.493438360       583.881809487         2.364855785         4.858294145         0.253352478
         4            0.400000         2.516943073       589.385845575         2.341333706         4.858276780         0.201011425
         5            0.500000         2.538165204       594.355375383         2.320096267         4.858261471         0.217119336
         6            0.600000         2.556862429       598.733654720         2.301385972         4.858248402         0.207244355
         7            0.700000         2.572828478       602.472381632         2.285409276         4.858237753         0.221666517
         8            0.800000         2.585895729       605.532304934         2.272333912         4.858229640         0.208510984
         9            0.900000         2.595937308       607.883714724         2.262286866         4.858224174         0.226011241
        10            1.000000         2.602868628       609.506803431         2.255352780         4.858221407         0.268249143
        11            1.100000         2.606648384       610.391898864         2.251572995         4.858221379         0.205527270
        12            1.200000         2.607278962       610.539559627         2.250945093         4.858224055         0.235007517
        13            1.300000         2.604806228       609.960526093         2.253423179         4.858229407         0.230948055
        14            1.400000         2.599318800       608.675549740         2.258918546         4.858237345         0.228001680
        15            1.500000         2.590946783       606.715096912         2.267300984         4.858247767         0.110997355
        16            1.600000         2.579859945       604.118921639         2.278400564         4.858260509         0.175312962
        17            1.700000         2.566265280       600.935495270         2.292010118         4.858275399         0.145803312
        18            1.800000         2.550404135       597.221333179         2.307888094         4.858292229         0.155323047
        19            1.900000         2.532548933       593.040228212         2.325761842         4.858310776         0.223022347
        20            2.000000         2.512999478       588.462384325         2.345331291         4.858330769         0.221726522
        21            2.100000         2.492078836       583.563453475         2.366273103         4.858351940         0.118003331
        22            2.200000         2.470128917       578.423499507         2.388245080         4.858373997         0.193187499
        23            2.300000         2.447505855       573.125917361         2.410890802         4.858396657         0.196506584
        24            2.400000         2.424575211       567.756309701         2.433844378         4.858419589         0.185888717
        25            2.500000         2.399445481       561.871747865         2.458996991         4.858442473         0.240777047
        26            2.600000         2.376974281       556.609726855         2.481490738         4.858465019         0.183690682
        27            2.700000         2.355301780       551.534735194         2.503185149         4.858486930         0.211093443
        28            2.800000         2.334781650       546.729590921         2.523726282         4.858507932         0.205084164
        29            2.900000         2.315752915       542.273682994         2.542774907         4.858527823         0.224860661
        30            3.000000         2.298536748       538.242218919         2.560009720         4.858546468         0.224928550
        31            3.100000         2.283315103       534.677807084         2.575249272         4.858564376         0.260756245
        32            3.200000         2.270584029       531.696605356         2.587994690         4.858578719         0.225213751
        33            3.300000         2.260438958       529.320961173         2.598152744         4.858591702         0.171801886
        34            3.400000         2.253085128       527.598934295         2.605516747         4.858601875         0.191910926
        35            3.500000         2.248687727       526.569206590         2.609921608         4.858609335         0.179861700
        36            3.600000         2.247369013       526.260406959         2.611245097         4.858614110         0.187959637
        37            3.700000         2.249208329       526.691114797         2.609407831         4.858616160         0.197277494
        38            3.800000         2.254241599       527.869742174         2.604373890         4.858615489         0.189033812
        39            3.900000         2.262460919       529.794438229         2.596151162         4.858612081         0.160025986
        40            4.000000         2.273814609       532.453101524         2.584791373         4.858605982         0.198847955
        41            4.100000         2.288207769       535.823509539         2.570389486         4.858597255         0.109388549
        42            4.200000         2.305503371       539.873574481         2.553082636         4.858586007         0.163518725
        43            4.300000         2.325523910       544.561730828         2.533048462         4.858572372         0.121801751
        44            4.400000         2.348053656       549.837461202         2.510502864         4.858556520         0.092314985
        45            4.500000         2.372841331       555.641925085         2.485697315         4.858538647         0.117510574
        46            4.600000         2.399603214       561.908683828         2.458915776         4.858518991         0.094060961
        47            4.700000         2.428026767       568.564551258         2.430471019         4.858497785         0.116702452
        48            4.800000         2.457774610       575.530524306         2.400700701         4.858475311         0.094124658
        49            4.900000         2.488488747       582.722771829         2.369963107         4.858451854         0.116110094
        50            5.000000         2.519795140       590.053706544         2.338632566         4.858427706         0.188601471
        51            5.100000         2.551308470       597.433098778         2.307094705         4.858403175         0.157746820
        52            5.200000         2.582637033       604.769224928         2.275741543         4.858378576         0.157739997
        53            5.300000         2.613387767       611.970042180         2.244966453         4.858354220         0.170530060
        54            5.400000         2.643171263       618.944364023         2.215159146         4.858330409         0.157549210
        55            5.500000         2.671606747       625.603025580         2.186700717         4.858307464         0.136115357
        56            5.600000         2.698326864       631.860004081         2.159958797         4.858285662         0.138249518
        57            5.700000         2.722982281       637.633497275         2.135282977         4.858265258         0.169312427
        58            5.800000         2.745246000       642.846932826         2.113000510         4.858246510         0.223958591
        59            5.900000         2.764817184       647.429864788         2.093412409         4.858229593         0.121548615
        60            6.000000         2.781424342       651.318718664         2.076790277         4.858214618         0.089550821
        61            6.100000         2.794827642       654.457333674         2.063374018         4.858201659         0.093277043
        62            6.200000         2.804820545       656.797345200         2.053370246         4.858190790         0.134620778
        63            6.300000         2.811232329       658.298775561         2.046950179         4.858182508         0.187182512
        64            6.400000         2.815266792       659.243514963         2.042911239         4.858178031         0.221409950
        65            6.500000         2.814279296       659.012275637         2.043896487         4.858175782         0.172276044
        66            6.600000         2.809595353       657.915449320         2.048580574         4.858175927         0.093764776
        67            6.700000         2.801221164       655.954487719         2.056958033         4.858179197         0.259934727
        68            6.800000         2.789209887       653.141839190         2.068975747         4.858185635         0.163956065
        69            6.900000         2.773663055       649.501278878         2.084531994         4.858195049         0.115266247
        70            7.000000         2.754728411       645.067403801         2.103478791         4.858207202         0.207853848
        71            7.100000         2.732596903       639.884927562         2.125624979         4.858221882         0.112192165
        72            7.200000         2.707499484       634.007931999         2.150739405         4.858238889         0.088413354
        73            7.300000         2.679703680       627.499062619         2.178554252         4.858257932         0.168354254
        74            7.400000         2.649509475       620.428566244         2.208769115         4.858278590         0.117837528
        75            7.500000         2.617238336       612.871719734         2.241059163         4.858297499         0.147887263
        76            7.600000         2.583301032       604.924711805         2.275016812         4.858317844         0.128773704
        77            7.700000         2.547979663       596.653600926         2.310358123         4.858337786         0.171062086
        78            7.800000         2.511730548       588.165242366         2.346632461         4.858363008         0.177577522
        79            7.900000         2.474946199       579.551549556         2.383442706         4.858388905         0.131803894
        80            8.000000         2.438036018       570.908390985         2.420378904         4.858414923         0.153666094
        81            8.100000         2.401411752       562.332184288         2.457028978         4.858440730         0.116432387
        82            8.200000         2.365481689       553.918537187         2.492984309         4.858465998         0.149955383
        83            8.300000         2.330645550       545.761051541         2.527844857         4.858490407         0.196677526
        84            8.400000         2.297289577       537.950172376         2.561224093         4.858513671         0.178399576
        85            8.500000         2.265781775       530.572074425         2.592753735         4.858535510         0.198268600
        86            8.600000         2.236467519       523.707633219         2.622088131         4.858555650         0.194965938
        87            8.700000         2.209665348       517.431440372         2.648908519         4.858573867         0.139768725
        88            8.800000         2.185663144       511.810908115         2.672926793         4.858589937         0.101520630
        89            8.900000         2.164714704       506.905467872         2.693888971         4.858603674         0.141780177
        90            9.000000         2.147036704       502.765857907         2.711578214         4.858614918         0.145599738
        91            9.100000         2.132806166       499.433530713         2.725817369         4.858623535         0.085963205
        92            9.200000         2.122158342       496.940158113         2.736471093         4.858629435         0.127568338
        93            9.300000         2.115185150       495.307264383         2.743447389         4.858632539         0.107352138
        94            9.400000         2.111934183       494.545993987         2.746698643         4.858632825         0.109694852
        95            9.500000         2.112408189       494.656990777         2.746222106         4.858630294         0.109059781
        96            9.600000         2.116565147       495.630414591         2.742059841         4.858624988         0.097630780
        97            9.700000         2.124318878       497.446085045         2.734298106         4.858616983         0.096378023
        98            9.800000         2.135540244       500.073762405         2.723066136         4.858606380         0.107493885
        99            9.900000         2.150058909       503.473559590         2.708534415         4.858593324         0.108637571
       100           10.000000         2.167665574       507.596465175         2.690912407         4.858577981         0.110023828
       101           10.100000         2.188114702       512.384982957         2.670445851         4.858560552         0.167250464
       102           10.200000         2.211127694       517.773873981         2.647413568         4.858541262         0.196097268
       103           10.300000         2.236396468       523.690995445         2.622123881         4.858520349         0.154565888
       104           10.400000         2.263587442       530.058233185         2.594910663         4.858498105         0.154817101
       105           10.500000         2.292345775       536.792495351         2.566129008         4.858474783         0.125108527
       106           10.600000         2.322299881       543.806768468         2.536150825         4.858450706         0.137070375
       107           10.700000         2.353066163       551.011226616         2.505359991         4.858426154         0.177591620
       108           10.800000         2.384253858       558.314365878         2.474147589         4.858401447         0.118479352
       109           10.900000         2.415469983       565.624162751         2.442906917         4.858376900         0.074264139
       110           11.000000         2.446324322       572.849241055         2.412028505         4.858352827         0.076005967
       111           11.100000         2.476434290       579.900011943         2.381895232         4.858329522         0.119550137
       112           11.200000         2.505429731       586.689797017         2.352877531         4.858307262         0.072866535
       113           11.300000         2.532957613       593.135927515         2.325328722         4.858286334         0.073695501
       114           11.400000         2.558686410       599.160771291         2.299580606         4.858267015         0.073280644
       115           11.500000         2.582310383       604.692734240         2.275939190         4.858249573         0.072931862
       116           11.600000         2.603394480       609.629940941         2.254839900         4.858234381         0.092219798
       117           11.700000         2.622076549       614.004671184         2.236142675         4.858219224         0.073217573
       118           11.800000         2.637896444       617.709173788         2.220310873         4.858207317         0.073274802
       119           11.900000         2.650679681       620.702590174         2.207521665         4.858201345         0.071455931
       120           12.000000         2.660315317       622.958941363         2.197880682         4.858195999         0.073203342
       121           12.100000         2.666723772       624.459592260         2.191469187         4.858192959         0.071740331
       122           12.200000         2.669860802       625.194182210         2.188331712         4.858192514         0.071355028
       123           12.300000         2.669723715       625.162080828         2.188471005         4.858194720         0.086836962
       124           12.400000         2.666352225       624.372588006         2.191847316         4.858199541         0.110998714
       125           12.500000         2.659827984       622.844823927         2.198378928         4.858206912         0.126468638
       126           12.600000         2.650273346       620.607439957         2.207943354         4.858216701         0.108751627
       127           12.700000         2.637849658       617.698217928         2.220379136         4.858228794         0.106831163
       128           12.800000         2.622755001       614.163542325         2.235488008         4.858243008         0.075643001
       129           12.900000         2.605221422       610.057750909         2.253037725         4.858259146         0.090698337
       130           13.000000         2.585511736       605.442386438         2.272765241         4.858276977         0.132961111
       131           13.100000         2.563916029       600.385377264         2.294380237         4.858296266         0.117771555
       132           13.200000         2.540747709       594.960113591         2.317569083         4.858316791         0.087929845
       133           13.300000         2.516339285       589.244457976         2.341998903         4.858338188         0.158935193
       134           13.400000         2.491038024       583.319729337         2.367322218         4.858360242         0.088454699
       135           13.500000         2.465201287       577.269609606         2.393181336         4.858382623         0.110261433
       136           13.600000         2.439191752       571.179026007         2.419213296         4.858405047         0.115293227
       137           13.700000         2.413372671       565.133040632         2.445054539         4.858427209         0.156436827
       138           13.800000         2.388103049       559.215720797         2.470345763         4.858448813         0.075163446
       139           13.900000         2.363732858       553.509018076         2.494736698         4.858469556         0.125929952
       140           14.000000         2.340598463       548.091698480         2.517890714         4.858489177         0.075698564
       141           14.100000         2.319018210       543.038308239         2.539489208         4.858507418         0.074096810
       142           14.200000         2.299288248       538.418195837         2.559235790         4.858524039         0.096248448
       143           14.300000         2.281678647       534.294602331         2.576860166         4.858538812         0.100103961
       144           14.400000         2.266429811       530.723823085         2.592121730         4.858551540         0.074417232
       145           14.500000         2.253749337       527.754470358         2.604812723         4.858562060         0.114996132
       146           14.600000         2.243809284       525.426834772         2.614760939         4.858570223         0.150671164
       147           14.700000         2.236743942       523.772362478         2.621831976         4.858575918         0.151807841
       148           14.800000         2.232648091       522.813247955         2.625930987         4.858579078         0.345465966
       149           14.900000         2.231575714       522.562132207         2.627003934         4.858579648         0.136343449
       150           15.000000         2.233539260       523.021930675         2.625038359         4.858577619         0.135710524
       151           15.100000         2.238509438       524.185783967         2.620063558         4.858572996         0.076123469
       152           15.200000         2.246415287       526.037075483         2.612150481         4.858565768         0.121764423
       153           15.300000         2.257143823       528.549348164         2.601411874         4.858555697         0.075129917
       154           15.400000         2.270644602       531.710789487         2.587897038         4.858541640         0.152759163
       155           15.500000         2.286505134       535.424807978         2.572021928         4.858527061         0.124150969
       156           15.600000         2.304663297       539.676856596         2.553846233         4.858509529         0.160251591
       157           15.700000         2.324851376       544.404245278         2.533640169         4.858491545         0.158736752
       158           15.800000         2.346782760       549.539859012         2.511689573         4.858472333         0.144257998
       159           15.900000         2.370151596       555.012076958         2.488300362         4.858451958         0.139309686
       160           16.000000         2.394632972       560.744815317         2.463797653         4.858430624         0.087426588
       161           16.100000         2.419886377       566.658337844         2.438522224         4.858408601         0.087373028
       162           16.200000         2.445560013       572.670264767         2.412826169         4.858386182         0.094855588
       163           16.300000         2.471295399       578.696651412         2.387068275         4.858363673         0.138933308
       164           16.400000         2.495997282       584.481025516         2.362344075         4.858341357         0.124634802
       165           16.500000         2.520783751       590.285206877         2.337535342         4.858319093         0.106641093
       166           16.600000         2.544586970       595.859143013         2.313710560         4.858297529         0.118252108
       167           16.700000         2.569918232       601.790897076         2.288358858         4.858277090         0.112879144
       168           16.800000         2.590717995       606.661522230         2.267540320         4.858258316         0.103495484
       169           16.900000         2.609552491       611.071945866         2.248688612         4.858241103         0.106439615
       170           17.000000         2.626144454       614.957241679         2.232081246         4.858225700         0.108587092
       171           17.100000         2.640245028       618.259135401         2.217967275         4.858212303         0.086496649
       172           17.200000         2.651637086       620.926783223         2.206563999         4.858201085         0.150909601
       173           17.300000         2.660138161       622.917457338         2.198054046         4.858192207         0.149472591
       174           17.400000         2.665602929       624.197127368         2.192582860         4.858185788         0.128632709
       175           17.500000         2.667925155       624.740916953         2.190256775         4.858181930         0.101270050
       176           17.600000         2.667039227       624.533461600         2.191141410         4.858180637         0.101564974
       177           17.700000         2.662921141       623.569140356         2.195260885         4.858182027         0.115251148
       178           17.800000         2.655588877       621.852163548         2.202597172         4.858186048         0.100233588
       179           17.900000         2.645102339       619.396558965         2.213090320         4.858192659         0.139900522
       180           18.000000         2.631562749       616.226029282         2.226639042         4.858201791         0.139453938
       181           18.100000         2.615111458       612.373674320         2.243101863         4.858213321         0.099747892
       182           18.200000         2.595928268       607.881597965         2.262298873         4.858227142         0.126518272
       183           18.300000         2.574229315       602.800412094         2.284013765         4.858243081         0.146368351
       184           18.400000         2.550264405       597.188612967         2.307996543         4.858260948         0.107798064
       185           18.500000         2.524313977       591.111870548         2.333966546         4.858280523         0.076067463
       186           18.600000         2.496685713       584.642233595         2.361615836         4.858301549         0.076241346
       187           18.700000         2.467710786       577.857252156         2.390613031         4.858323817         0.075922364
       188           18.800000         2.437739880       570.839045134         2.420607168         4.858347049         0.076303381
       189           18.900000         2.407138856       563.673284897         2.451232108         4.858370964         0.076228252
       190           19.000000         2.376284310       556.448158221         2.482110974         4.858395285         0.075888461
       191           19.100000         2.345558898       549.253270340         2.512860753         4.858419651         0.076047581
       192           19.200000         2.315346152       542.178432166         2.543097551         4.858443702         0.076072602
       193           19.300000         2.286024973       535.312370106         2.572442100         4.858467074         0.076460067
       194           19.400000         2.257964107       528.741431815         2.600525321         4.858489428         0.076250345
       195           19.500000         2.231517162       522.548421387         2.626993377         4.858510539         0.076234436
       196           19.600000         2.207018609       516.811660504         2.651511607         4.858530216         0.076480471
       197           19.700000         2.184780393       511.604196877         2.673767884         4.858548277         0.076560147
       198           19.800000         2.165088655       506.993035101         2.693475864         4.858564519         0.076315567
       199           19.900000         2.148200348       503.038345321         2.710378386         4.858578735         0.076668447
       200           20.000000         2.134340042       499.792714360         2.724250688         4.858590730         0.107704276
