#     Step Nr.          Time[fs]        Kin.[a.u.]          Temp[K]            Pot.[a.u.]        Cons Qty[a.u.]        UsedTime[s]
         0            0.000000        21.829436064       299.202747010        22.406735065        44.236171129         0.000000000
         1            0.100000        21.835140861       299.280939178        22.401026806        44.236167667         2.488236340
         2            0.200000        21.841468524       299.367668597        22.394695305        44.236163829         0.428040517
         3            0.300000        21.848358433       299.462104371        22.387801219        44.236159652         0.428088981
         4            0.400000        21.855744425       299.563339649        22.380410748        44.236155173         0.428505219
         5            0.500000        21.863555477       299.670400967        22.372594971        44.236150448         0.427395755
         6            0.600000        21.871716466       299.782258655        22.364429047        44.236145513         0.422113862
         7            0.700000        21.880148993       299.897838159        22.355991432        44.236140425         0.419330400
         8            0.800000        21.888772253       300.016031913        22.347362971        44.236135224         0.420818852
         9            0.900000        21.897503904       300.135711320        22.338626099        44.236130003         0.419807188
        10            1.000000        21.906260896       300.255738059        22.329863879        44.236124775         0.421186177
        11            1.100000        21.914960371       300.374976452        22.321159257        44.236119628         0.421213106
        12            1.200000        21.923520589       300.492306130        22.312594046        44.236114635         0.419550340
        13            1.300000        21.931861708       300.606632760        22.304248078        44.236109787         0.419325126
        14            1.400000        21.939906611       300.716899332        22.296198564        44.236105176         0.419153957
        15            1.500000        21.947581739       300.822097618        22.288519084        44.236100823         0.419832256
        16            1.600000        21.954817959       300.921280067        22.281278842        44.236096801         0.418111448
        17            1.700000        21.961551138       301.013567639        22.274541956        44.236093094         0.418975988
        18            1.800000        21.967722773       301.098158472        22.268367070        44.236089844         0.420328351
        19            1.900000        21.973280573       301.174335844        22.262806404        44.236086978         0.417603951
        20            2.000000        21.978178901       301.241474225        22.257905667        44.236084567         0.304181929
        21            2.100000        21.982379295       301.299046460        22.253703334        44.236082628         0.234937730
        22            2.200000        21.985850746       301.346627518        22.250230422        44.236081168         0.229721711
        23            2.300000        21.988569979       301.383898389        22.247510209        44.236080189         0.233894815
        24            2.400000        21.990521594       301.410647986        22.245558140        44.236079734         0.231079813
        25            2.500000        21.991698007       301.426772353        22.244381763        44.236079769         0.220069501
        26            2.600000        21.992099516       301.432275599        22.243980765        44.236080281         0.222447105
        27            2.700000        21.991734217       301.427268659        22.244347067        44.236081283         0.233125462
        28            2.800000        21.990617723       301.411965563        22.245465025        44.236082748         0.231087114
        29            2.900000        21.988772955       301.386680455        22.247311654        44.236084609         0.219543101
        30            3.000000        21.986229696       301.351821558        22.249857207        44.236086903         0.223206239
        31            3.100000        21.983024163       301.307885281        22.253065385        44.236089549         0.217319268
        32            3.200000        21.979198516       301.255449466        22.256894020        44.236092536         0.217539387
        33            3.300000        21.974800244       301.195165040        22.261295566        44.236095809         0.218431811
        34            3.400000        21.969881603       301.127748229        22.266217759        44.236099362         0.217428871
        35            3.500000        21.964498918       301.053971055        22.271604200        44.236103118         0.217066643
        36            3.600000        21.958711795       300.974650493        22.277395254        44.236107049         0.217851658
        37            3.700000        21.952582344       300.890637856        22.283528740        44.236111084         0.218954470
        38            3.800000        21.946174458       300.802808879        22.289940731        44.236115189         0.217644071
        39            3.900000        21.939553061       300.712053436        22.296566235        44.236119296         0.222570008
        40            4.000000        21.932783222       300.619263380        22.303340165        44.236123386         0.217018625
        41            4.100000        21.925929427       300.525322602        22.310197951        44.236127378         0.234555781
        42            4.200000        21.919054898       300.431097627        22.317076365        44.236131263         0.224054111
        43            4.300000        21.912220743       300.337426043        22.323914239        44.236134982         0.223277597
        44            4.400000        21.905485312       300.245107598        22.330653155        44.236138467         0.221080163
        45            4.500000        21.898903537       300.154895237        22.337238171        44.236141708         0.220381830
        46            4.600000        21.892526225       300.067485309        22.343618435        44.236144659         0.220671315
        47            4.700000        21.886399581       299.983511145        22.349747727        44.236147307         0.221388945
        48            4.800000        21.880564767       299.903536922        22.355584820        44.236149587         0.221648337
        49            4.900000        21.875057415       299.828051003        22.361094089        44.236151504         0.223345432
        50            5.000000        21.869907276       299.757461200        22.366245768        44.236153044         0.224065327
        51            5.100000        21.865138032       299.692092080        22.371016174        44.236154206         0.221112735
        52            5.200000        21.860767043       299.632181605        22.375387919        44.236154962         0.217392757
        53            5.300000        21.856805229       299.577879445        22.379350122        44.236155352         0.217943522
        54            5.400000        21.853257140       299.529247947        22.382898157        44.236155297         0.216682703
        55            5.500000        21.850121004       299.486262857        22.386033870        44.236154875         0.216320274
        56            5.600000        21.847388886       299.448815375        22.388765175        44.236154060         0.218245247
        57            5.700000        21.845046818       299.416714077        22.391106074        44.236152891         0.217046525
        58            5.800000        21.843075184       299.389690105        22.393076232        44.236151417         0.216566374
        59            5.900000        21.841449131       299.367402781        22.394700485        44.236149616         0.217032743
        60            6.000000        21.840138915       299.349444453        22.396008620        44.236147535         0.217142233
        61            6.100000        21.839110436       299.335347718        22.397034769        44.236145205         0.216306290
        62            6.200000        21.838325777       299.324592874        22.397816893        44.236142670         0.217908309
        63            6.300000        21.837743800       299.316616072        22.398396199        44.236139999         0.216872083
        64            6.400000        21.837320828       299.310818658        22.398816388        44.236137216         0.217525444
        65            6.500000        21.837011288       299.306575975        22.399123067        44.236134355         0.216442739
        66            6.600000        21.836768338       299.303246013        22.399363082        44.236131420         0.216964804
        67            6.700000        21.836544610       299.300179508        22.399583883        44.236128493         0.221038878
        68            6.800000        21.836292878       299.296729176        22.399832743        44.236125622         0.217664340
        69            6.900000        21.835966775       299.292259482        22.400156072        44.236122847         0.217325242
        70            7.000000        21.835521432       299.286155430        22.400598794        44.236120226         0.217604401
        71            7.100000        21.834914178       299.277832179        22.401203593        44.236117771         0.224176936
        72            7.200000        21.834105180       299.266743735        22.402010358        44.236115538         0.215691287
        73            7.300000        21.833057853       299.252388662        22.403055672        44.236113525         0.215991918
        74            7.400000        21.831739492       299.234318689        22.404372300        44.236111792         0.216789587
        75            7.500000        21.830121809       299.212146102        22.405988534        44.236110343         0.226201350
        76            7.600000        21.828181386       299.185549901        22.407927857        44.236109242         0.217889304
        77            7.700000        21.825899842       299.154278182        22.410208630        44.236108472         0.216603814
        78            7.800000        21.823264183       299.118152814        22.412843840        44.236108024         0.217132083
        79            7.900000        21.820267079       299.077073336        22.415840838        44.236107917         0.216408235
        80            8.000000        21.816906908       299.031017525        22.419201287        44.236108195         0.217231988
        81            8.100000        21.813187876       298.980043017        22.422920965        44.236108841         0.217581347
        82            8.200000        21.809120002       298.924287154        22.426989848        44.236109850         0.217016918
        83            8.300000        21.804719030       298.863965719        22.431392164        44.236111194         0.216737582
        84            8.400000        21.800006151       298.799369175        22.436106704        44.236112855         0.216821160
        85            8.500000        21.795007790       298.730859691        22.441107022        44.236114812         0.217290510
        86            8.600000        21.789755332       298.658867454        22.446361722        44.236117054         0.217109368
        87            8.700000        21.784284633       298.583883930        22.451834917        44.236119551         0.216620860
        88            8.800000        21.778635615       298.506456285        22.457486630        44.236122245         0.217522514
        89            8.900000        21.772851798       298.427181037        22.463273340        44.236125138         0.218188159
        90            9.000000        21.766979715       298.346695981        22.469148484        44.236128199         0.227446594
        91            9.100000        21.761068304       298.265671887        22.475063043        44.236131347         0.214080520
        92            9.200000        21.755168303       298.184804171        22.480966275        44.236134578         0.213093845
        93            9.300000        21.749331537       298.104803183        22.486806299        44.236137836         0.212625862
        94            9.400000        21.743610272       298.026385306        22.492530825        44.236141097         0.213100963
        95            9.500000        21.738056606       297.950264595        22.498087677        44.236144283         0.213033863
        96            9.600000        21.732721636       297.877141415        22.503425727        44.236147362         0.212437323
        97            9.700000        21.727654933       297.807695209        22.508495379        44.236150312         0.213176460
        98            9.800000        21.722903810       297.742574471        22.513249247        44.236153057         0.216157287
        99            9.900000        21.718512640       297.682387383        22.517642930        44.236155569         1.072870907
       100           10.000000        21.714522418       297.627695848        22.521635428        44.236157846         0.212508274
       101           10.100000        21.710970119       297.579006661        22.525189731        44.236159850         0.211005348
       102           10.200000        21.707888226       297.536765029        22.528273311        44.236161537         0.212312389
       103           10.300000        21.705304302       297.501348762        22.530858596        44.236162897         0.211470130
       104           10.400000        21.703240594       297.473062779        22.532923298        44.236163892         0.212122146
       105           10.500000        21.701713756       297.452135351        22.534450760        44.236164516         0.211456569
       106           10.600000        21.700734624       297.438714987        22.535430140        44.236164765         0.211224095
       107           10.700000        21.700308008       297.432867613        22.535856630        44.236164638         0.211535637
       108           10.800000        21.700432668       297.434576253        22.535731456        44.236164124         0.216775620
       109           10.900000        21.701101290       297.443740649        22.535061953        44.236163243         0.212364392
       110           11.000000        21.702300487       297.460177308        22.533861510        44.236161997         0.212044080
       111           11.100000        21.704011080       297.483623363        22.532149303        44.236160383         0.213690417
       112           11.200000        21.706208311       297.513739463        22.529950119        44.236158429         0.214777163
       113           11.300000        21.708862080       297.550113051        22.527294113        44.236156192         0.214336583
       114           11.400000        21.711937406       297.592264677        22.524216271        44.236153678         0.212144009
       115           11.500000        21.715394862       297.639653915        22.520756037        44.236150900         0.211890509
       116           11.600000        21.719191021       297.691685543        22.516956878        44.236147899         0.211997888
       117           11.700000        21.723279068       297.747717901        22.512865657        44.236144724         0.212951487
       118           11.800000        21.727609460       297.807071947        22.508531965        44.236141425         0.212124958
       119           11.900000        21.732130447       297.869038351        22.504007577        44.236138024         0.211812764
       120           12.000000        21.736788755       297.932886931        22.499345836        44.236134591         0.211954237
       121           12.100000        21.741530439       297.997878303        22.494600711        44.236131150         0.211148111
       122           12.200000        21.746301531       298.063272745        22.489826207        44.236127738         0.211657692
       123           12.300000        21.751048682       298.128339040        22.485075758        44.236124440         0.211422233
       124           12.400000        21.755719955       298.192365326        22.480401309        44.236121263         0.211557197
       125           12.500000        21.760265504       298.254668388        22.475852759        44.236118263         0.212022463
       126           12.600000        21.764638247       298.314602910        22.471477232        44.236115479         0.211692252
       127           12.700000        21.768794473       298.371569762        22.467318485        44.236112958         0.210988201
       128           12.800000        21.772694464       298.425024554        22.463416262        44.236110726         0.211518769
       129           12.900000        21.776303048       298.474485212        22.459805721        44.236108769         0.211231718
       130           13.000000        21.779590072       298.519538449        22.456517105        44.236107177         0.211131278
       131           13.100000        21.782530872       298.559846201        22.453575075        44.236105947         0.211924605
       132           13.200000        21.785106545       298.595149376        22.450998577        44.236105122         0.211905569
       133           13.300000        21.787304340       298.625273198        22.448800325        44.236104664         0.211349998
       134           13.400000        21.789117805       298.650129255        22.446986818        44.236104623         0.211285579
       135           13.500000        21.790546846       298.669716255        22.445558134        44.236104980         0.212182216
       136           13.600000        21.791597820       298.684121317        22.444507935        44.236105755         0.211542435
       137           13.700000        21.792283490       298.693519374        22.443823423        44.236106913         0.211125433
       138           13.800000        21.792622898       298.698171427        22.443485556        44.236108454         0.211610809
       139           13.900000        21.792641092       298.698420806        22.443469263        44.236110355         0.210964299
       140           14.000000        21.792368896       298.694689981        22.443743719        44.236112615         0.211434402
       141           14.100000        21.791842485       298.687474780        22.444272705        44.236115190         0.212838825
       142           14.200000        21.791102917       298.677337981        22.445015084        44.236118001         0.213885800
       143           14.300000        21.790195663       298.664902796        22.445925420        44.236121082         0.212251427
       144           14.400000        21.789170004       298.650844716        22.446954343        44.236124347         0.224842315
       145           14.500000        21.788078412       298.635882942        22.448049368        44.236127781         0.211375057
       146           14.600000        21.786975838       298.620770630        22.449155475        44.236131313         0.211228364
       147           14.700000        21.785918991       298.606285075        22.450215951        44.236134943         0.211464494
       148           14.800000        21.784965676       298.593218559        22.451172899        44.236138574         0.211671820
       149           14.900000        21.784173948       298.582366827        22.451968253        44.236142200         0.211349452
       150           15.000000        21.783601327       298.574518266        22.452544415        44.236145742         0.212709829
       151           15.100000        21.783304082       298.570444111        22.452845048        44.236149130         0.210895311
       152           15.200000        21.783336461       298.570887916        22.452815902        44.236152364         0.211329283
       153           15.300000        21.783749964       298.576555550        22.452405427        44.236155392         0.211068438
       154           15.400000        21.784592611       298.588105198        22.451565539        44.236158151         0.212387259
       155           15.500000        21.785908208       298.606137283        22.450252395        44.236160603         0.211908586
       156           15.600000        21.787735757       298.631186378        22.448426968        44.236162725         0.211176073
       157           15.700000        21.790108946       298.663714222        22.446055539        44.236164485         0.211664318
       158           15.800000        21.793055543       298.704101434        22.443110296        44.236165840         0.211453555
       159           15.900000        21.796596989       298.752641870        22.439569791        44.236166780         0.211563444
       160           16.000000        21.800748022       298.809537547        22.435419270        44.236167292         0.212840412
       161           16.100000        21.805516407       298.874894877        22.430650931        44.236167338         0.211924752
       162           16.200000        21.810902780       298.948722604        22.425264139        44.236166918         0.212779375
       163           16.300000        21.816900378       299.030928024        22.419265689        44.236166067         0.213849924
       164           16.400000        21.823495041       299.121317039        22.412669701        44.236164742         0.212200376
       165           16.500000        21.830665411       299.219596926        22.405497542        44.236162954         0.212946304
       166           16.600000        21.838382923       299.325376148        22.397777817        44.236160741         0.213451473
       167           16.700000        21.846611934       299.438166171        22.389546202        44.236158136         0.212060128
       168           16.800000        21.855310152       299.557387328        22.380844956        44.236155108         0.213348658
       169           16.900000        21.864428899       299.682372428        22.371722825        44.236151724         0.212903517
       170           17.000000        21.873913621       299.812373726        22.362234384        44.236148005         0.212394347
       171           17.100000        21.883704559       299.946572128        22.352439430        44.236143989         0.212214486
       172           17.200000        21.893737173       300.084083034        22.342402543        44.236139715         0.213736223
       173           17.300000        21.903942800       300.223965333        22.332192420        44.236135220         0.213449061
       174           17.400000        21.914249417       300.365231836        22.321881148        44.236130565         0.212942779
       175           17.500000        21.924582370       300.506859318        22.311543436        44.236125807         0.207643960
       176           17.600000        21.934865128       300.647798792        22.301255841        44.236120969         0.200427695
       177           17.700000        21.945020067       300.786986343        22.291096042        44.236116109         0.200996667
       178           17.800000        21.954969306       300.923354492        22.281141988        44.236111295         0.199797687
       179           17.900000        21.964635565       301.055843999        22.271470991        44.236106556         0.202289231
       180           18.000000        21.973942933       301.183414404        22.262159022        44.236101955         0.199206171
       181           18.100000        21.982817667       301.305054955        22.253279891        44.236097557         0.199857598
       182           18.200000        21.991189063       301.419796568        22.244904316        44.236093379         0.200582530
       183           18.300000        21.998990232       301.526722436        22.237099254        44.236089487         0.199544479
       184           18.400000        22.006158807       301.624977706        22.229927118        44.236085925         0.201119105
       185           18.500000        22.012637552       301.713777914        22.223445165        44.236082717         0.200022269
       186           18.600000        22.018375050       301.792418298        22.217704856        44.236079907         0.199628174
       187           18.700000        22.023326249       301.860281351        22.212751279        44.236077528         0.200493173
       188           18.800000        22.027452979       301.916843921        22.208622631        44.236075610         1.002961936
       189           18.900000        22.030724350       301.961682608        22.205349810        44.236074161         0.206618309
       190           19.000000        22.033117021       301.994477480        22.202956196        44.236073217         0.208854476
       191           19.100000        22.034615610       302.015017724        22.201457151        44.236072760         0.202388056
       192           19.200000        22.035212795       302.023202977        22.200859991        44.236072786         0.201446612
       193           19.300000        22.034909376       302.019044204        22.201163967        44.236073343         0.202766470
       194           19.400000        22.033714248       302.002663312        22.202360161        44.236074410         0.209591313
       195           19.500000        22.031644290       301.974291658        22.204431657        44.236075947         0.200101672
       196           19.600000        22.028724259       301.934268572        22.207353738        44.236077997         0.198123745
       197           19.700000        22.024986373       301.883035664        22.211094104        44.236080477         0.199458328
       198           19.800000        22.020470003       301.821132526        22.215613356        44.236083358         0.200737607
       199           19.900000        22.015221345       301.749192385        22.220865294        44.236086639         0.201692950
       200           20.000000        22.009292829       301.667933835        22.226797451        44.236090280         0.200465638
