 DBCSR| Multiplication driver                                               XSMM
 DBCSR| Multrec recursion limit                                              512
 DBCSR| Multiplication stack size                                           1000
 DBCSR| Maximum elements for images                                    UNLIMITED
 DBCSR| Randmat seed                                                    12341313
 DBCSR| Multiplication size stacks                                             3


  **** **** ******  **  PROGRAM STARTED AT               2021-01-14 05:47:13.916
 ***** ** ***  *** **   PROGRAM STARTED ON               bulstake.phys.ucl.ac.uk
 **    ****   ******    PROGRAM STARTED BY                             sgiannini
 ***** **    ** ** **   PROGRAM PROCESS ID                                 12729
  **** **  *******  **  PROGRAM STARTED IN /scratch/sgiannini/FOB-SH-REGTESTS_/3
                                           2-XXXX_code_extension_V2/run-fssh-MTS
                                           1_NFF

 CP2K| version string:                    CP2K version 4.0 (Development Version)
 CP2K| source code revision number:                                  git:3649ac3
 CP2K| cp2kflags: libint fftw3 libxc quip smm_dnn smm libxsmm libderiv_max_am1=5
 CP2K|             libint_max_am=6
 CP2K| is freely available from                            https://www.cp2k.org/
 CP2K| Program compiled at                          Wed  6 Jan 14:38:30 GMT 2021
 CP2K| Program compiled on                               bulstake.phys.ucl.ac.uk
 CP2K| Program compiled for                                                local
 CP2K| Data directory path           /scratch/sgiannini/flavoured-cptk/cp2k/data
 CP2K| Input file name                                                   run.inp

 GLOBAL| Force Environment number                                              1
 GLOBAL| Basis set file name                                           POTENTIAL
 GLOBAL| MM Potential file name                                     MM_POTENTIAL
 GLOBAL| Coordinate file name                                       pos-init.xyz
 GLOBAL| Force Environment number                                              2
 GLOBAL| Basis set file name                                           POTENTIAL
 GLOBAL| MM Potential file name                                     MM_POTENTIAL
 GLOBAL| Coordinate file name                                       pos-init.xyz
 GLOBAL| Force Environment number                                              3
 GLOBAL| Basis set file name                                           POTENTIAL
 GLOBAL| MM Potential file name                                     MM_POTENTIAL
 GLOBAL| Coordinate file name                                       pos-init.xyz
 GLOBAL| Force Environment number                                              4
 GLOBAL| Basis set file name                                           POTENTIAL
 GLOBAL| MM Potential file name                                     MM_POTENTIAL
 GLOBAL| Coordinate file name                                       pos-init.xyz
 GLOBAL| Force Environment number                                              5
 GLOBAL| Basis set file name                                           POTENTIAL
 GLOBAL| MM Potential file name                                     MM_POTENTIAL
 GLOBAL| Coordinate file name                                       pos-init.xyz
 GLOBAL| Force Environment number                                              6
 GLOBAL| Basis set file name                                           POTENTIAL
 GLOBAL| MM Potential file name                                     MM_POTENTIAL
 GLOBAL| Coordinate file name                                       pos-init.xyz
 GLOBAL| Force Environment number                                              7
 GLOBAL| Basis set file name                                           POTENTIAL
 GLOBAL| MM Potential file name                                     MM_POTENTIAL
 GLOBAL| Coordinate file name                                       pos-init.xyz
 GLOBAL| Force Environment number                                              8
 GLOBAL| Basis set file name                                           POTENTIAL
 GLOBAL| MM Potential file name                                     MM_POTENTIAL
 GLOBAL| Coordinate file name                                       pos-init.xyz
 GLOBAL| Force Environment number                                              9
 GLOBAL| Basis set file name                                           POTENTIAL
 GLOBAL| MM Potential file name                                     MM_POTENTIAL
 GLOBAL| Coordinate file name                                       pos-init.xyz
 GLOBAL| Force Environment number                                             10
 GLOBAL| Basis set file name                                           POTENTIAL
 GLOBAL| MM Potential file name                                     MM_POTENTIAL
 GLOBAL| Coordinate file name                                       pos-init.xyz
 GLOBAL| Method name                                                        CP2K
 GLOBAL| Project name                                                        run
 GLOBAL| Preferred FFT library                                             FFTW3
 GLOBAL| Preferred diagonalization lib.                                       SL
 GLOBAL| Run type                                                             MD
 GLOBAL| All-to-all communication in single precision                          F
 GLOBAL| FFTs using library dependent lengths                                  F
 GLOBAL| Global print level                                                  LOW
 GLOBAL| Total number of message passing processes                             1
 GLOBAL| Number of threads for this process                                    1
 GLOBAL| This output is from process                                           0
 GLOBAL| CPU model name :  Intel(R) Xeon(R) CPU E5-2687W v4 @ 3.00GHz

 MEMORY| system memory details [Kb]
 MEMORY|                        rank 0           min           max       average
 MEMORY| MemTotal             65894336      65894336      65894336      65894336
 MEMORY| MemFree                946344        946344        946344        946344
 MEMORY| Buffers                  8744          8744          8744          8744
 MEMORY| Cached               55012380      55012380      55012380      55012380
 MEMORY| Slab                  1947760       1947760       1947760       1947760
 MEMORY| SReclaimable          1698944       1698944       1698944       1698944
 MEMORY| MemLikelyFree        57666412      57666412      57666412      57666412

 TOTAL NUMBER OF FORCE EVALS          10
 NOTE:n_subforce_eval           9
 DECOMP =  F
 DECOMP =  F
 DECOMP =  F
 DECOMP =  F
 DECOMP =  F
 DECOMP =  F
 DECOMP =  F
 DECOMP =  F
 DECOMP =  F

 MD| Molecular Dynamics Protocol 
 MD| Ensemble Type                                                           NVE
 MD| Number of Time Steps                                                    200
 MD| Time Step [fs]                                                         0.10
 MD| Temperature [K]                                                      400.00
 MD| Temperature tolerance [K]                                              0.00
 MD| Print MD information every                                        1 step(s)
 MD| File type     Print frequency[steps]                             File names
 MD| Coordinates          200                                      run-pos-1.xyz
 MD| Velocities             1                                      run-vel-1.xyz
 MD| Energies               1                                         run-1.ener
 MD| Dump                 200                                      run-1.restart

 ROT| Rotational Analysis Info 
 ROT| Principal axes and moments of inertia in atomic units:
 ROT|                                1                 2                 3
 ROT| EIGENVALUES            0.319196005E+10   0.583971964E+10   0.882037602E+10
 ROT|      X                     0.997631408       0.066105605       0.019016393
 ROT|      Y                     0.066118536      -0.997811774      -0.000051363
 ROT|      Z                    -0.018971385      -0.001308578       0.999819171
 ROT| Numer of Rotovibrational vectors:     6

 Calculation of degrees of freedom
                                                      Number of atoms:       900
                                 Number of Intramolecular constraints:         0
                                 Number of Intermolecular constraints:         0
                                  Invariants(translation + rotations):         3
                                                   Degrees of freedom:      2697


 Restraints Information
                                  Number of Intramolecular restraints:         0
                                  Number of Intermolecular restraints:         0

 *** WARNING in motion/thermostat/thermostat_methods.F:280 :: Thermostat ***
 *** for Particles has been defined but the ensemble provided does not   ***
 *** support thermostat for Particles! Ignoring thermostat input.        ***

 ************************** Velocities initialization **************************
 Initial Temperature                                                    564.84 K
 COM velocity:           -0.000000000004     -0.000000000000      0.000000000001
 *******************************************************************************

 FIRST CALL: force_env_calc_energy_force
 RESTART_KEY F
 FOB-SH: ALLOCATION OF S MATRICES
 Lookup table files:
 ../topologies/S_psigma.txt                                                      
 ../topologies/S_ppi.txt                                                         
 ../topologies/S_psigma_carbon_sulfur.dat                                        
 ../topologies/S_ppi_carbon_sulfur.dat                                           
 ../topologies/S_psigma_sulfur_sulfur.dat                                        
 ../topologies/S_ppi_sulfur_sulfur.dat                                           
 C-S psigma nrows     1166666
 C-S ppi nrows     1166666
 S-S psigma nrows     1166666
 S-S ppi nrows     1166666
 FOBSH| ACTIVE STATE =            3

 ENERGY| Total FORCE_EVAL ( MIXED ) energy (a.u.):             2.446232217772700

 STEP NUMBER                  =            0
 CPU TIME [s]                 =    0.0000000000000000        0.0000000000000000     

 MD_ENERGIES| Initialization proceeding


 ******************************** GO CP2K GO! **********************************
 INITIAL POTENTIAL ENERGY[hartree]     =                      0.244623221777E+01
 INITIAL KINETIC ENERGY[hartree]       =                      0.241212372912E+01
 INITIAL TEMPERATURE[K]                =                                 564.841
 INITIAL VOLUME[bohr^3]                =                      0.580604601118E+05
 INITIAL CELL LNTHS[bohr]   =      0.7651501E+02   0.5624770E+02   0.1634991E+02
 INITIAL CELL ANGLS[deg]    =      0.9000000E+02   0.1244000E+03   0.9000000E+02
 ******************************** GO CP2K GO! **********************************
 FOBSH| *** OFF-DIAGONAL GRADIENT CALCULATION
 FOBSH| Put former active state           3 in new active state           3
 RANDOM_NUMBER_HOPPING_PROBA   5.9147270233983230E-002
 FOBSH| ACTIVE STATE =            3

 ENERGY| Total FORCE_EVAL ( MIXED ) energy (a.u.):             2.417622451703957

 FOBSH| CASE1: no hop and no trivial crossing
 ENTER integrator.F
 STEP NUMBER                  =            1
 CPU TIME [s]                 =    49.224916013889015        49.224916013889015     

 *******************************************************************************
 ENSEMBLE TYPE                =                                              NVE
 STEP NUMBER                  =                                                1
 TIME [fs]                    =                                         0.100000
 CONSERVED QUANTITY [hartree] =                               0.485833408781E+01

                                              INSTANTANEOUS             AVERAGES
 CPU TIME [s]                 =                       49.22                49.22
 ENERGY DRIFT PER ATOM [K]    =         -0.766949633509E-02   0.000000000000E+00
 POTENTIAL ENERGY[hartree]    =          0.241762245170E+01   0.241762245170E+01
 KINETIC ENERGY [hartree]     =          0.244071163610E+01   0.244071163610E+01
 TEMPERATURE [K]              =                     571.535              571.535
 *******************************************************************************

 FOBSH| *** OFF-DIAGONAL GRADIENT CALCULATION
 FOBSH| Put former active state           3 in new active state           3
 RANDOM_NUMBER_HOPPING_PROBA   6.0028801785314174E-002
 FOBSH| ACTIVE STATE =            3

 ENERGY| Total FORCE_EVAL ( MIXED ) energy (a.u.):             2.390386989939289

 FOBSH| CASE1: no hop and no trivial crossing
 ENTER integrator.F
 STEP NUMBER                  =            2
 CPU TIME [s]                 =    8.1175648141652346E-002   24.653045831015334     

 *******************************************************************************
 ENSEMBLE TYPE                =                                              NVE
 STEP NUMBER                  =                                                2
 TIME [fs]                    =                                         0.200000
 CONSERVED QUANTITY [hartree] =                               0.485831332394E+01

                                              INSTANTANEOUS             AVERAGES
 CPU TIME [s]                 =                        0.08                24.65
 ENERGY DRIFT PER ATOM [K]    =         -0.149547210586E-01  -0.747736052929E-02
 POTENTIAL ENERGY[hartree]    =          0.239038698994E+01   0.240400472082E+01
 KINETIC ENERGY [hartree]     =          0.246792633400E+01   0.245431898505E+01
 TEMPERATURE [K]              =                     577.908              574.721
 *******************************************************************************

 FOBSH| *** OFF-DIAGONAL GRADIENT CALCULATION
 FOBSH| Put former active state           3 in new active state           3
 RANDOM_NUMBER_HOPPING_PROBA   7.3757525147303299E-002
 FOBSH| ACTIVE STATE =            3

 ENERGY| Total FORCE_EVAL ( MIXED ) energy (a.u.):             2.364855773581247

 FOBSH| CASE1: no hop and no trivial crossing
 ENTER integrator.F
 STEP NUMBER                  =            3
 CPU TIME [s]                 =    8.2076534163206816E-002   16.462722732064623     

 *******************************************************************************
 ENSEMBLE TYPE                =                                              NVE
 STEP NUMBER                  =                                                3
 TIME [fs]                    =                                         0.300000
 CONSERVED QUANTITY [hartree] =                               0.485829413140E+01

                                              INSTANTANEOUS             AVERAGES
 CPU TIME [s]                 =                        0.08                16.46
 ENERGY DRIFT PER ATOM [K]    =         -0.216886303224E-01  -0.122144504603E-01
 POTENTIAL ENERGY[hartree]    =          0.236485577358E+01   0.239095507174E+01
 KINETIC ENERGY [hartree]     =          0.249343835782E+01   0.246735877597E+01
 TEMPERATURE [K]              =                     583.882              577.775
 *******************************************************************************

 FOBSH| *** OFF-DIAGONAL GRADIENT CALCULATION
 FOBSH| Put former active state           3 in new active state           3
 RANDOM_NUMBER_HOPPING_PROBA  0.80854958276690769     
 FOBSH| ACTIVE STATE =            3

 ENERGY| Total FORCE_EVAL ( MIXED ) energy (a.u.):             2.341333699950327

 FOBSH| CASE1: no hop and no trivial crossing
 ENTER integrator.F
 STEP NUMBER                  =            4
 CPU TIME [s]                 =    8.1061126664280891E-002   12.367307330714539     

 *******************************************************************************
 ENSEMBLE TYPE                =                                              NVE
 STEP NUMBER                  =                                                4
 TIME [fs]                    =                                         0.400000
 CONSERVED QUANTITY [hartree] =                               0.485827677202E+01

                                              INSTANTANEOUS             AVERAGES
 CPU TIME [s]                 =                        0.08                12.37
 ENERGY DRIFT PER ATOM [K]    =         -0.277793539678E-01  -0.161056763372E-01
 POTENTIAL ENERGY[hartree]    =          0.234133369995E+01   0.237854972879E+01
 KINETIC ENERGY [hartree]     =          0.251694307207E+01   0.247975485000E+01
 TEMPERATURE [K]              =                     589.386              580.678
 *******************************************************************************

 FOBSH| *** OFF-DIAGONAL GRADIENT CALCULATION
 FOBSH| Put former active state           3 in new active state           3
 RANDOM_NUMBER_HOPPING_PROBA  0.83291450404706813     
 FOBSH| ACTIVE STATE =            3

 ENERGY| Total FORCE_EVAL ( MIXED ) energy (a.u.):             2.320096253965149

 FOBSH| CASE1: no hop and no trivial crossing
 ENTER integrator.F
 STEP NUMBER                  =            5
 CPU TIME [s]                 =    8.1974428147077560E-002   9.9102407502010479     

 *******************************************************************************
 ENSEMBLE TYPE                =                                              NVE
 STEP NUMBER                  =                                                5
 TIME [fs]                    =                                         0.500000
 CONSERVED QUANTITY [hartree] =                               0.485826145058E+01

                                              INSTANTANEOUS             AVERAGES
 CPU TIME [s]                 =                        0.08                 9.91
 ENERGY DRIFT PER ATOM [K]    =         -0.331550474884E-01  -0.195155505674E-01
 POTENTIAL ENERGY[hartree]    =          0.232009625397E+01   0.236685903383E+01
 KINETIC ENERGY [hartree]     =          0.253816519661E+01   0.249143691932E+01
 TEMPERATURE [K]              =                     594.355              583.413
 *******************************************************************************

 FOBSH| *** OFF-DIAGONAL GRADIENT CALCULATION
 FOBSH| Put former active state           3 in new active state           3
 RANDOM_NUMBER_HOPPING_PROBA  0.18164339214140215     
 FOBSH| ACTIVE STATE =            3

 ENERGY| Total FORCE_EVAL ( MIXED ) energy (a.u.):             2.301385962497756

 FOBSH| CASE1: no hop and no trivial crossing
 ENTER integrator.F
 STEP NUMBER                  =            6
 CPU TIME [s]                 =    8.0660277977585793E-002   8.2719773381638042     

 *******************************************************************************
 ENSEMBLE TYPE                =                                              NVE
 STEP NUMBER                  =                                                6
 TIME [fs]                    =                                         0.600000
 CONSERVED QUANTITY [hartree] =                               0.485824838082E+01

                                              INSTANTANEOUS             AVERAGES
 CPU TIME [s]                 =                        0.08                 8.27
 ENERGY DRIFT PER ATOM [K]    =         -0.377407125672E-01  -0.225530775674E-01
 POTENTIAL ENERGY[hartree]    =          0.230138596250E+01   0.235594685527E+01
 KINETIC ENERGY [hartree]     =          0.255686241832E+01   0.250234116915E+01
 TEMPERATURE [K]              =                     598.734              585.967
 *******************************************************************************

 FOBSH| *** OFF-DIAGONAL GRADIENT CALCULATION
 FOBSH| Put former active state           3 in new active state           3
 RANDOM_NUMBER_HOPPING_PROBA   1.5105624017764302E-002
 FOBSH| ACTIVE STATE =            3

 ENERGY| Total FORCE_EVAL ( MIXED ) energy (a.u.):             2.285409260771545

 FOBSH| CASE1: no hop and no trivial crossing
 ENTER integrator.F
 STEP NUMBER                  =            7
 CPU TIME [s]                 =    8.1241813022643328E-002   7.1018722631436377     

 *******************************************************************************
 ENSEMBLE TYPE                =                                              NVE
 STEP NUMBER                  =                                                7
 TIME [fs]                    =                                         0.700000
 CONSERVED QUANTITY [hartree] =                               0.485823772434E+01

                                              INSTANTANEOUS             AVERAGES
 CPU TIME [s]                 =                        0.08                 7.10
 ENERGY DRIFT PER ATOM [K]    =         -0.414796510910E-01  -0.252568737851E-01
 POTENTIAL ENERGY[hartree]    =          0.228540926077E+01   0.234587005606E+01
 KINETIC ENERGY [hartree]     =          0.257282846357E+01   0.251241078264E+01
 TEMPERATURE [K]              =                     602.472              588.325
 *******************************************************************************

 FOBSH| *** OFF-DIAGONAL GRADIENT CALCULATION
 FOBSH| Put former active state           3 in new active state           3
 RANDOM_NUMBER_HOPPING_PROBA  0.24687190385287536     
 FOBSH| ACTIVE STATE =            3

 ENERGY| Total FORCE_EVAL ( MIXED ) energy (a.u.):             2.272333892703072

 FOBSH| CASE1: no hop and no trivial crossing
 ENTER integrator.F
 STEP NUMBER                  =            8
 CPU TIME [s]                 =    8.1279008183628321E-002   6.2242981062736362     

 *******************************************************************************
 ENSEMBLE TYPE                =                                              NVE
 STEP NUMBER                  =                                                8
 TIME [fs]                    =                                         0.800000
 CONSERVED QUANTITY [hartree] =                               0.485822960408E+01

                                              INSTANTANEOUS             AVERAGES
 CPU TIME [s]                 =                        0.08                 6.22
 ENERGY DRIFT PER ATOM [K]    =         -0.443287307085E-01  -0.276408559005E-01
 POTENTIAL ENERGY[hartree]    =          0.227233389270E+01   0.233667803564E+01
 KINETIC ENERGY [hartree]     =          0.258589571138E+01   0.252159639873E+01
 TEMPERATURE [K]              =                     605.532              590.476
 *******************************************************************************

 FOBSH| *** OFF-DIAGONAL GRADIENT CALCULATION
 FOBSH| Put former active state           3 in new active state           3
 RANDOM_NUMBER_HOPPING_PROBA  0.83365123518729989     
 FOBSH| ACTIVE STATE =            3

 ENERGY| Total FORCE_EVAL ( MIXED ) energy (a.u.):             2.262286855935994

 FOBSH| CASE1: no hop and no trivial crossing
 ENTER integrator.F
 STEP NUMBER                  =            9
 CPU TIME [s]                 =    8.0905071925371885E-002   5.5416988802349403     

 *******************************************************************************
 ENSEMBLE TYPE                =                                              NVE
 STEP NUMBER                  =                                                9
 TIME [fs]                    =                                         0.900000
 CONSERVED QUANTITY [hartree] =                               0.485822414527E+01

                                              INSTANTANEOUS             AVERAGES
 CPU TIME [s]                 =                        0.08                 5.54
 ENERGY DRIFT PER ATOM [K]    =         -0.462440122205E-01  -0.297078732694E-01
 POTENTIAL ENERGY[hartree]    =          0.226228685594E+01   0.232841234901E+01
 KINETIC ENERGY [hartree]     =          0.259593728934E+01   0.252985649769E+01
 TEMPERATURE [K]              =                     607.884              592.410
 *******************************************************************************

 FOBSH| *** OFF-DIAGONAL GRADIENT CALCULATION
 FOBSH| Put former active state           3 in new active state           3
 RANDOM_NUMBER_HOPPING_PROBA  0.47399308453094258     
 FOBSH| ACTIVE STATE =            3

 ENERGY| Total FORCE_EVAL ( MIXED ) energy (a.u.):             2.255352766656521

 FOBSH| CASE1: no hop and no trivial crossing
 ENTER integrator.F
 STEP NUMBER                  =           10
 CPU TIME [s]                 =    8.1361509859561920E-002   4.9956651431974031     

 *******************************************************************************
 ENSEMBLE TYPE                =                                              NVE
 STEP NUMBER                  =                                               10
 TIME [fs]                    =                                         1.000000
 CONSERVED QUANTITY [hartree] =                               0.485822137256E+01

                                              INSTANTANEOUS             AVERAGES
 CPU TIME [s]                 =                        0.08                 5.00
 ENERGY DRIFT PER ATOM [K]    =         -0.472168476589E-01  -0.314587707083E-01
 POTENTIAL ENERGY[hartree]    =          0.225535276666E+01   0.232110639077E+01
 KINETIC ENERGY [hartree]     =          0.260286860591E+01   0.253715770851E+01
 TEMPERATURE [K]              =                     609.507              594.119
 *******************************************************************************

 FOBSH| *** OFF-DIAGONAL GRADIENT CALCULATION
 FOBSH| Put former active state           3 in new active state           3
 RANDOM_NUMBER_HOPPING_PROBA  0.27416560636517739     
 FOBSH| ACTIVE STATE =            3

 ENERGY| Total FORCE_EVAL ( MIXED ) energy (a.u.):             2.251572980381614

 FOBSH| CASE1: no hop and no trivial crossing
 ENTER integrator.F
 STEP NUMBER                  =           11
 CPU TIME [s]                 =    8.1371786072850227E-002   4.5489112016406255     

 *******************************************************************************
 ENSEMBLE TYPE                =                                              NVE
 STEP NUMBER                  =                                               11
 TIME [fs]                    =                                         1.100000
 CONSERVED QUANTITY [hartree] =                               0.485822133511E+01

                                              INSTANTANEOUS             AVERAGES
 CPU TIME [s]                 =                        0.08                 4.55
 ENERGY DRIFT PER ATOM [K]    =         -0.472299897589E-01  -0.328925178947E-01
 POTENTIAL ENERGY[hartree]    =          0.225157298038E+01   0.231478517164E+01
 KINETIC ENERGY [hartree]     =          0.260664835472E+01   0.254347503999E+01
 TEMPERATURE [K]              =                     610.392              595.599
 *******************************************************************************

 FOBSH| *** OFF-DIAGONAL GRADIENT CALCULATION
 FOBSH| Put former active state           3 in new active state           3
 RANDOM_NUMBER_HOPPING_PROBA  0.45405030167718952     
 FOBSH| ACTIVE STATE =            3

 ENERGY| Total FORCE_EVAL ( MIXED ) energy (a.u.):             2.250945077302118

 FOBSH| CASE1: no hop and no trivial crossing
 ENTER integrator.F
 STEP NUMBER                  =           12
 CPU TIME [s]                 =    8.1576623953878880E-002   4.1766333201667294     

 *******************************************************************************
 ENSEMBLE TYPE                =                                              NVE
 STEP NUMBER                  =                                               12
 TIME [fs]                    =                                         1.200000
 CONSERVED QUANTITY [hartree] =                               0.485822400565E+01

                                              INSTANTANEOUS             AVERAGES
 CPU TIME [s]                 =                        0.08                 4.18
 ENERGY DRIFT PER ATOM [K]    =         -0.462930004503E-01  -0.340092247744E-01
 POTENTIAL ENERGY[hartree]    =          0.225094507730E+01   0.230946516378E+01
 KINETIC ENERGY [hartree]     =          0.260727892835E+01   0.254879203068E+01
 TEMPERATURE [K]              =                     610.540              596.844
 *******************************************************************************

 FOBSH| *** OFF-DIAGONAL GRADIENT CALCULATION
 FOBSH| Put former active state           3 in new active state           3
 RANDOM_NUMBER_HOPPING_PROBA  0.54219999671392127     
 FOBSH| ACTIVE STATE =            3

 ENERGY| Total FORCE_EVAL ( MIXED ) energy (a.u.):             2.253423167408532

 FOBSH| CASE1: no hop and no trivial crossing
 ENTER integrator.F
 STEP NUMBER                  =           13
 CPU TIME [s]                 =    8.1207923125475645E-002   3.8616005973174024     

 *******************************************************************************
 ENSEMBLE TYPE                =                                              NVE
 STEP NUMBER                  =                                               13
 TIME [fs]                    =                                         1.300000
 CONSERVED QUANTITY [hartree] =                               0.485822935873E+01

                                              INSTANTANEOUS             AVERAGES
 CPU TIME [s]                 =                        0.08                 3.86
 ENERGY DRIFT PER ATOM [K]    =         -0.444148138613E-01  -0.348096547041E-01
 POTENTIAL ENERGY[hartree]    =          0.225342316741E+01   0.230515424098E+01
 KINETIC ENERGY [hartree]     =          0.260480619133E+01   0.255310081227E+01
 TEMPERATURE [K]              =                     609.961              597.853
 *******************************************************************************

 FOBSH| *** OFF-DIAGONAL GRADIENT CALCULATION
 FOBSH| Put former active state           3 in new active state           3
 RANDOM_NUMBER_HOPPING_PROBA  0.78530724540909458     
 FOBSH| ACTIVE STATE =            3

 ENERGY| Total FORCE_EVAL ( MIXED ) energy (a.u.):             2.258918534532973

 FOBSH| CASE1: no hop and no trivial crossing
 ENTER integrator.F
 STEP NUMBER                  =           14
 CPU TIME [s]                 =    8.0781362950801849E-002   3.5915420805769305     

 *******************************************************************************
 ENSEMBLE TYPE                =                                              NVE
 STEP NUMBER                  =                                               14
 TIME [fs]                    =                                         1.400000
 CONSERVED QUANTITY [hartree] =                               0.485823729337E+01

                                              INSTANTANEOUS             AVERAGES
 CPU TIME [s]                 =                        0.08                 3.59
 ENERGY DRIFT PER ATOM [K]    =         -0.416308611257E-01  -0.352968837342E-01
 POTENTIAL ENERGY[hartree]    =          0.225891853453E+01   0.230185169052E+01
 KINETIC ENERGY [hartree]     =          0.259931875884E+01   0.255640209417E+01
 TEMPERATURE [K]              =                     608.676              598.626
 *******************************************************************************

 FOBSH| *** OFF-DIAGONAL GRADIENT CALCULATION
 FOBSH| Put former active state           3 in new active state           3
 RANDOM_NUMBER_HOPPING_PROBA  0.35091300797413705     
 FOBSH| ACTIVE STATE =            3

 ENERGY| Total FORCE_EVAL ( MIXED ) energy (a.u.):             2.267300976443296

 FOBSH| CASE1: no hop and no trivial crossing
 ENTER integrator.F
 STEP NUMBER                  =           15
 CPU TIME [s]                 =    8.0959533806890249E-002   3.3575032441255948     

 *******************************************************************************
 ENSEMBLE TYPE                =                                              NVE
 STEP NUMBER                  =                                               15
 TIME [fs]                    =                                         1.500000
 CONSERVED QUANTITY [hartree] =                               0.485824771442E+01

                                              INSTANTANEOUS             AVERAGES
 CPU TIME [s]                 =                        0.08                 3.36
 ENERGY DRIFT PER ATOM [K]    =         -0.379745244623E-01  -0.354753931161E-01
 POTENTIAL ENERGY[hartree]    =          0.226730097644E+01   0.229954830958E+01
 KINETIC ENERGY [hartree]     =          0.259094673798E+01   0.255870507042E+01
 TEMPERATURE [K]              =                     606.715              599.165
 *******************************************************************************

 FOBSH| *** OFF-DIAGONAL GRADIENT CALCULATION
 FOBSH| Put former active state           3 in new active state           3
 RANDOM_NUMBER_HOPPING_PROBA  0.51277297843638336     
 FOBSH| ACTIVE STATE =            3

 ENERGY| Total FORCE_EVAL ( MIXED ) energy (a.u.):             2.278400547013298

 FOBSH| CASE1: no hop and no trivial crossing
 ENTER integrator.F
 STEP NUMBER                  =           16
 CPU TIME [s]                 =    8.0565636977553368E-002   3.1526946436788421     

 *******************************************************************************
 ENSEMBLE TYPE                =                                              NVE
 STEP NUMBER                  =                                               16
 TIME [fs]                    =                                         1.600000
 CONSERVED QUANTITY [hartree] =                               0.485826044102E+01

                                              INSTANTANEOUS             AVERAGES
 CPU TIME [s]                 =                        0.08                 3.15
 ENERGY DRIFT PER ATOM [K]    =         -0.335092610314E-01  -0.353525098608E-01
 POTENTIAL ENERGY[hartree]    =          0.227840054701E+01   0.229822657442E+01
 KINETIC ENERGY [hartree]     =          0.257985989401E+01   0.256002724690E+01
 TEMPERATURE [K]              =                     604.119              599.475
 *******************************************************************************

 FOBSH| *** OFF-DIAGONAL GRADIENT CALCULATION
 FOBSH| Put former active state           3 in new active state           3
 RANDOM_NUMBER_HOPPING_PROBA  0.56672912879839055     
 FOBSH| ACTIVE STATE =            3

 ENERGY| Total FORCE_EVAL ( MIXED ) energy (a.u.):             2.292010105020013

 FOBSH| CASE1: no hop and no trivial crossing
 ENTER integrator.F
 STEP NUMBER                  =           17
 CPU TIME [s]                 =    8.1098847091197968E-002   2.9720125379972160     

 *******************************************************************************
 ENSEMBLE TYPE                =                                              NVE
 STEP NUMBER                  =                                               17
 TIME [fs]                    =                                         1.700000
 CONSERVED QUANTITY [hartree] =                               0.485827533008E+01

                                              INSTANTANEOUS             AVERAGES
 CPU TIME [s]                 =                        0.08                 2.97
 ENERGY DRIFT PER ATOM [K]    =         -0.282852735411E-01  -0.349367900773E-01
 POTENTIAL ENERGY[hartree]    =          0.229201010502E+01   0.229786089975E+01
 KINETIC ENERGY [hartree]     =          0.256626522506E+01   0.256039418679E+01
 TEMPERATURE [K]              =                     600.935              599.561
 *******************************************************************************

 FOBSH| *** OFF-DIAGONAL GRADIENT CALCULATION
 FOBSH| Put former active state           3 in new active state           3
 RANDOM_NUMBER_HOPPING_PROBA   4.1701011982236642E-002
 FOBSH| ACTIVE STATE =            3

 ENERGY| Total FORCE_EVAL ( MIXED ) energy (a.u.):             2.307888090183389

 FOBSH| CASE1: no hop and no trivial crossing
 ENTER integrator.F
 STEP NUMBER                  =           18
 CPU TIME [s]                 =    8.0847240053117275E-002   2.8113922436669880     

 *******************************************************************************
 ENSEMBLE TYPE                =                                              NVE
 STEP NUMBER                  =                                               18
 TIME [fs]                    =                                         1.800000
 CONSERVED QUANTITY [hartree] =                               0.485829217258E+01

                                              INSTANTANEOUS             AVERAGES
 CPU TIME [s]                 =                        0.08                 2.81
 ENERGY DRIFT PER ATOM [K]    =         -0.223759021979E-01  -0.342389629729E-01
 POTENTIAL ENERGY[hartree]    =          0.230788809018E+01   0.229841796589E+01
 KINETIC ENERGY [hartree]     =          0.255040408240E+01   0.255983918099E+01
 TEMPERATURE [K]              =                     597.221              599.431
 *******************************************************************************

 FOBSH| *** OFF-DIAGONAL GRADIENT CALCULATION
 FOBSH| Put former active state           3 in new active state           3
 RANDOM_NUMBER_HOPPING_PROBA  0.23087441688912894     
 FOBSH| ACTIVE STATE =            3

 ENERGY| Total FORCE_EVAL ( MIXED ) energy (a.u.):             2.325761822280419

 FOBSH| CASE1: no hop and no trivial crossing
 ENTER integrator.F
 STEP NUMBER                  =           19
 CPU TIME [s]                 =    8.0205480102449656E-002   2.6676455719004331     

 *******************************************************************************
 ENSEMBLE TYPE                =                                              NVE
 STEP NUMBER                  =                                               19
 TIME [fs]                    =                                         1.900000
 CONSERVED QUANTITY [hartree] =                               0.485831069608E+01

                                              INSTANTANEOUS             AVERAGES
 CPU TIME [s]                 =                        0.08                 2.67
 ENERGY DRIFT PER ATOM [K]    =         -0.158767353131E-01  -0.332725299382E-01
 POTENTIAL ENERGY[hartree]    =          0.232576182228E+01   0.229985711622E+01
 KINETIC ENERGY [hartree]     =          0.253254887380E+01   0.255840284903E+01
 TEMPERATURE [K]              =                     593.040              599.094
 *******************************************************************************

 FOBSH| *** OFF-DIAGONAL GRADIENT CALCULATION
 FOBSH| Put former active state           3 in new active state           3
 RANDOM_NUMBER_HOPPING_PROBA  0.10818778711908025     
 FOBSH| ACTIVE STATE =            3

 ENERGY| Total FORCE_EVAL ( MIXED ) energy (a.u.):             2.345331280429509

 FOBSH| CASE1: no hop and no trivial crossing
 ENTER integrator.F
 STEP NUMBER                  =           20
 CPU TIME [s]                 =    8.1349242944270372E-002   2.5383307554526251     

 *******************************************************************************
 ENSEMBLE TYPE                =                                              NVE
 STEP NUMBER                  =                                               20
 TIME [fs]                    =                                         2.000000
 CONSERVED QUANTITY [hartree] =                               0.485833069106E+01

                                              INSTANTANEOUS             AVERAGES
 CPU TIME [s]                 =                        0.08                 2.54
 ENERGY DRIFT PER ATOM [K]    =         -0.886128253818E-02  -0.320519675682E-01
 POTENTIAL ENERGY[hartree]    =          0.234533128043E+01   0.230213082443E+01
 KINETIC ENERGY [hartree]     =          0.251299941063E+01   0.255613267711E+01
 TEMPERATURE [K]              =                     588.462              598.563
 *******************************************************************************

 FOBSH| *** OFF-DIAGONAL GRADIENT CALCULATION
 FOBSH| Put former active state           3 in new active state           3
 RANDOM_NUMBER_HOPPING_PROBA  0.22324767369672568     
 FOBSH| ACTIVE STATE =            3

 ENERGY| Total FORCE_EVAL ( MIXED ) energy (a.u.):             2.366273089923266

 FOBSH| CASE1: no hop and no trivial crossing
 ENTER integrator.F
 STEP NUMBER                  =           21
 CPU TIME [s]                 =    8.1469871103763580E-002   2.4213373800074409     

 *******************************************************************************
 ENSEMBLE TYPE                =                                              NVE
 STEP NUMBER                  =                                               21
 TIME [fs]                    =                                         2.100000
 CONSERVED QUANTITY [hartree] =                               0.485835186657E+01

                                              INSTANTANEOUS             AVERAGES
 CPU TIME [s]                 =                        0.08                 2.42
 ENERGY DRIFT PER ATOM [K]    =         -0.143162753370E-02  -0.305938561380E-01
 POTENTIAL ENERGY[hartree]    =          0.236627308992E+01   0.230518521803E+01
 KINETIC ENERGY [hartree]     =          0.249207877664E+01   0.255308249137E+01
 TEMPERATURE [K]              =                     583.563              597.849
 *******************************************************************************

 FOBSH| *** OFF-DIAGONAL GRADIENT CALCULATION
 FOBSH| Put former active state           3 in new active state           3
 RANDOM_NUMBER_HOPPING_PROBA  0.53970963304387498     
 FOBSH| ACTIVE STATE =            3

 ENERGY| Total FORCE_EVAL ( MIXED ) energy (a.u.):             2.388245065988288

 FOBSH| CASE1: no hop and no trivial crossing
 ENTER integrator.F
 STEP NUMBER                  =           22
 CPU TIME [s]                 =    8.1195061095058918E-002   2.3149672746023326     

 *******************************************************************************
 ENSEMBLE TYPE                =                                              NVE
 STEP NUMBER                  =                                               22
 TIME [fs]                    =                                         2.200000
 CONSERVED QUANTITY [hartree] =                               0.485837393037E+01

                                              INSTANTANEOUS             AVERAGES
 CPU TIME [s]                 =                        0.08                 2.31
 ENERGY DRIFT PER ATOM [K]    =          0.630969268510E-02  -0.289164221005E-01
 POTENTIAL ENERGY[hartree]    =          0.238824506599E+01   0.230896066566E+01
 KINETIC ENERGY [hartree]     =          0.247012886438E+01   0.254931187197E+01
 TEMPERATURE [K]              =                     578.423              596.966
 *******************************************************************************

 FOBSH| *** OFF-DIAGONAL GRADIENT CALCULATION
 FOBSH| Put former active state           3 in new active state           3
 RANDOM_NUMBER_HOPPING_PROBA   3.7455510299360881E-002
 FOBSH| ACTIVE STATE =            3

 ENERGY| Total FORCE_EVAL ( MIXED ) energy (a.u.):             2.410890789300058

 FOBSH| CASE1: no hop and no trivial crossing
 ENTER integrator.F
 STEP NUMBER                  =           23
 CPU TIME [s]                 =    8.3597730845212936E-002   2.2179512074824577     

 *******************************************************************************
 ENSEMBLE TYPE                =                                              NVE
 STEP NUMBER                  =                                               23
 TIME [fs]                    =                                         2.300000
 CONSERVED QUANTITY [hartree] =                               0.485839659006E+01

                                              INSTANTANEOUS             AVERAGES
 CPU TIME [s]                 =                        0.08                 2.22
 ENERGY DRIFT PER ATOM [K]    =          0.142600898831E-01  -0.270391824491E-01
 POTENTIAL ENERGY[hartree]    =          0.241089078930E+01   0.231339241017E+01
 KINETIC ENERGY [hartree]     =          0.244750580076E+01   0.254488552104E+01
 TEMPERATURE [K]              =                     573.126              595.929
 *******************************************************************************

 FOBSH| *** OFF-DIAGONAL GRADIENT CALCULATION
 FOBSH| Put former active state           3 in new active state           3
 RANDOM_NUMBER_HOPPING_PROBA  0.50599131459514457     
 FOBSH| ACTIVE STATE =            3

 ENERGY| Total FORCE_EVAL ( MIXED ) energy (a.u.):             2.433844362870791

 FOBSH| CASE1: no hop and no trivial crossing
 ENTER integrator.F
 STEP NUMBER                  =           24
 CPU TIME [s]                 =    8.6490669753402472E-002   2.1291403517437466     

 *******************************************************************************
 ENSEMBLE TYPE                =                                              NVE
 STEP NUMBER                  =                                               24
 TIME [fs]                    =                                         2.400000
 CONSERVED QUANTITY [hartree] =                               0.485841951999E+01

                                              INSTANTANEOUS             AVERAGES
 CPU TIME [s]                 =                        0.09                 2.13
 ENERGY DRIFT PER ATOM [K]    =          0.223053020338E-01  -0.249831622623E-01
 POTENTIAL ENERGY[hartree]    =          0.243384436287E+01   0.231841124153E+01
 KINETIC ENERGY [hartree]     =          0.242457515712E+01   0.253987258921E+01
 TEMPERATURE [K]              =                     567.756              594.755
 *******************************************************************************

 FOBSH| *** OFF-DIAGONAL GRADIENT CALCULATION
 FOBSH| Put former active state           3 in new active state           3
 RANDOM_NUMBER_HOPPING_PROBA  0.97666355388844839     
 FOBSH| ATTEMPTED_HOP
 FOBSH| ACTIVE STATE =            3

 ENERGY| Total FORCE_EVAL ( MIXED ) energy (a.u.):             2.456735447634067

 FOBSH| Active state before the attempt to hop:           3
 FOBSH| Active state after the attempt to hop:           3
 FOBSH| CASE4: rejected hop and good overlap
 ENTER integrator.F
 STEP NUMBER                  =           25
 CPU TIME [s]                 =    8.6011040024459362E-002   2.0474151792749753     

 *******************************************************************************
 ENSEMBLE TYPE                =                                              NVE
 STEP NUMBER                  =                                               25
 TIME [fs]                    =                                         2.500000
 CONSERVED QUANTITY [hartree] =                               0.485844240804E+01

                                              INSTANTANEOUS             AVERAGES
 CPU TIME [s]                 =                        0.09                 2.05
 ENERGY DRIFT PER ATOM [K]    =          0.303358190124E-01  -0.227704030113E-01
 POTENTIAL ENERGY[hartree]    =          0.245673544763E+01   0.232394420978E+01
 KINETIC ENERGY [hartree]     =          0.240170696041E+01   0.253434596406E+01
 TEMPERATURE [K]              =                     562.401              593.461
 *******************************************************************************

 FOBSH| *** OFF-DIAGONAL GRADIENT CALCULATION
 FOBSH| Put former active state           3 in new active state           3
 RANDOM_NUMBER_HOPPING_PROBA  0.12840580700626780     
 FOBSH| ACTIVE STATE =            3

 ENERGY| Total FORCE_EVAL ( MIXED ) energy (a.u.):             2.479243622064228

 FOBSH| CASE1: no hop and no trivial crossing
 ENTER integrator.F
 STEP NUMBER                  =           26
 CPU TIME [s]                 =    8.2524992059916258E-002   1.9718424797667040     

 *******************************************************************************
 ENSEMBLE TYPE                =                                              NVE
 STEP NUMBER                  =                                               26
 TIME [fs]                    =                                         2.600000
 CONSERVED QUANTITY [hartree] =                               0.485846495912E+01

                                              INSTANTANEOUS             AVERAGES
 CPU TIME [s]                 =                        0.08                 1.97
 ENERGY DRIFT PER ATOM [K]    =          0.382481079374E-01  -0.204235372056E-01
 POTENTIAL ENERGY[hartree]    =          0.247924362206E+01   0.232991726410E+01
 KINETIC ENERGY [hartree]     =          0.237922133706E+01   0.252837963225E+01
 TEMPERATURE [K]              =                     557.136              592.064
 *******************************************************************************

 FOBSH| *** OFF-DIAGONAL GRADIENT CALCULATION
 FOBSH| Put former active state           3 in new active state           3
 RANDOM_NUMBER_HOPPING_PROBA  0.80710812468977888     
 FOBSH| ACTIVE STATE =            3

 ENERGY| Total FORCE_EVAL ( MIXED ) energy (a.u.):             2.500958862382414

 FOBSH| CASE1: no hop and no trivial crossing
 ENTER integrator.F
 STEP NUMBER                  =           27
 CPU TIME [s]                 =    8.1521966028958559E-002   1.9018306088875281     

 *******************************************************************************
 ENSEMBLE TYPE                =                                              NVE
 STEP NUMBER                  =                                               27
 TIME [fs]                    =                                         2.700000
 CONSERVED QUANTITY [hartree] =                               0.485848686973E+01

                                              INSTANTANEOUS             AVERAGES
 CPU TIME [s]                 =                        0.08                 1.90
 ENERGY DRIFT PER ATOM [K]    =          0.459356797825E-01  -0.179657884282E-01
 POTENTIAL ENERGY[hartree]    =          0.250095886238E+01   0.233625213811E+01
 KINETIC ENERGY [hartree]     =          0.235752800735E+01   0.252205179429E+01
 TEMPERATURE [K]              =                     552.056              590.582
 *******************************************************************************

 FOBSH| *** OFF-DIAGONAL GRADIENT CALCULATION
 FOBSH| Put former active state           3 in new active state           3
 RANDOM_NUMBER_HOPPING_PROBA  0.36348714134779886     
 FOBSH| ACTIVE STATE =            3

 ENERGY| Total FORCE_EVAL ( MIXED ) energy (a.u.):             2.521527224459549

 FOBSH| CASE1: no hop and no trivial crossing
 ENTER integrator.F
 STEP NUMBER                  =           28
 CPU TIME [s]                 =    8.3963314071297646E-002   1.8369067769298055     

 *******************************************************************************
 ENSEMBLE TYPE                =                                              NVE
 STEP NUMBER                  =                                               28
 TIME [fs]                    =                                         2.800000
 CONSERVED QUANTITY [hartree] =                               0.485850780627E+01

                                              INSTANTANEOUS             AVERAGES
 CPU TIME [s]                 =                        0.08                 1.84
 ENERGY DRIFT PER ATOM [K]    =          0.532814887986E-01  -0.154212428130E-01
 POTENTIAL ENERGY[hartree]    =          0.252152722446E+01   0.234286910548E+01
 KINETIC ENERGY [hartree]     =          0.233698058181E+01   0.251544210813E+01
 TEMPERATURE [K]              =                     547.245              589.034
 *******************************************************************************

 FOBSH| *** OFF-DIAGONAL GRADIENT CALCULATION
 FOBSH| Put former active state           3 in new active state           3
 RANDOM_NUMBER_HOPPING_PROBA  0.85522378722358217     
 FOBSH| ACTIVE STATE =            3

 ENERGY| Total FORCE_EVAL ( MIXED ) energy (a.u.):             2.540610088739956

 FOBSH| CASE1: no hop and no trivial crossing
 ENTER integrator.F
 STEP NUMBER                  =           29
 CPU TIME [s]                 =    8.3439427893608809E-002   1.7764423855837299     

 *******************************************************************************
 ENSEMBLE TYPE                =                                              NVE
 STEP NUMBER                  =                                               29
 TIME [fs]                    =                                         2.900000
 CONSERVED QUANTITY [hartree] =                               0.485852751537E+01

                                              INSTANTANEOUS             AVERAGES
 CPU TIME [s]                 =                        0.08                 1.78
 ENERGY DRIFT PER ATOM [K]    =          0.601966364400E-01  -0.128137297353E-01
 POTENTIAL ENERGY[hartree]    =          0.254061008874E+01   0.234968776007E+01
 KINETIC ENERGY [hartree]     =          0.231791742663E+01   0.250863091222E+01
 TEMPERATURE [K]              =                     542.781              587.439
 *******************************************************************************

 FOBSH| *** OFF-DIAGONAL GRADIENT CALCULATION
 FOBSH| Put former active state           3 in new active state           3
 RANDOM_NUMBER_HOPPING_PROBA  0.67034729650063396     
 FOBSH| ACTIVE STATE =            3

 ENERGY| Total FORCE_EVAL ( MIXED ) energy (a.u.):             2.557888684843525

 FOBSH| CASE1: no hop and no trivial crossing
 ENTER integrator.F
 STEP NUMBER                  =           30
 CPU TIME [s]                 =    8.3916276227682829E-002   1.7200248486051950     

 *******************************************************************************
 ENSEMBLE TYPE                =                                              NVE
 STEP NUMBER                  =                                               30
 TIME [fs]                    =                                         3.000000
 CONSERVED QUANTITY [hartree] =                               0.485854575142E+01

                                              INSTANTANEOUS             AVERAGES
 CPU TIME [s]                 =                        0.08                 1.72
 ENERGY DRIFT PER ATOM [K]    =          0.665949498986E-01  -0.101667737475E-01
 POTENTIAL ENERGY[hartree]    =          0.255788868484E+01   0.235662779090E+01
 KINETIC ENERGY [hartree]     =          0.230065706657E+01   0.250169845070E+01
 TEMPERATURE [K]              =                     538.739              585.816
 *******************************************************************************

 FOBSH| *** OFF-DIAGONAL GRADIENT CALCULATION
 FOBSH| Put former active state           3 in new active state           3
 RANDOM_NUMBER_HOPPING_PROBA  0.95194410928626894     
 FOBSH| ACTIVE STATE =            3

 ENERGY| Total FORCE_EVAL ( MIXED ) energy (a.u.):             2.573068296406119

 FOBSH| CASE1: no hop and no trivial crossing
 ENTER integrator.F
 STEP NUMBER                  =           31
 CPU TIME [s]                 =    8.4039553068578243E-002   1.6672511293943364     

 *******************************************************************************
 ENSEMBLE TYPE                =                                              NVE
 STEP NUMBER                  =                                               31
 TIME [fs]                    =                                         3.100000
 CONSERVED QUANTITY [hartree] =                               0.485856217660E+01

                                              INSTANTANEOUS             AVERAGES
 CPU TIME [s]                 =                        0.08                 1.67
 ENERGY DRIFT PER ATOM [K]    =          0.723579016421E-01  -0.750468744463E-02
 POTENTIAL ENERGY[hartree]    =          0.257306829641E+01   0.236360974269E+01
 KINETIC ENERGY [hartree]     =          0.228549388019E+01   0.249472410971E+01
 TEMPERATURE [K]              =                     535.188              584.183
 *******************************************************************************

 FOBSH| *** OFF-DIAGONAL GRADIENT CALCULATION
 FOBSH| Put former active state           3 in new active state           3
 RANDOM_NUMBER_HOPPING_PROBA  0.40303366510919353     
 FOBSH| ACTIVE STATE =            3

 ENERGY| Total FORCE_EVAL ( MIXED ) energy (a.u.):             2.585882620533074

 FOBSH| CASE1: no hop and no trivial crossing
 ENTER integrator.F
 STEP NUMBER                  =           32
 CPU TIME [s]                 =    8.3832765929400921E-002   1.6177693055360571     

 *******************************************************************************
 ENSEMBLE TYPE                =                                              NVE
 STEP NUMBER                  =                                               32
 TIME [fs]                    =                                         3.200000
 CONSERVED QUANTITY [hartree] =                               0.485857662429E+01

                                              INSTANTANEOUS             AVERAGES
 CPU TIME [s]                 =                        0.08                 1.62
 ENERGY DRIFT PER ATOM [K]    =          0.774270287055E-01  -0.485057131494E-02
 POTENTIAL ENERGY[hartree]    =          0.258588262053E+01   0.237055577012E+01
 KINETIC ENERGY [hartree]     =          0.227269400376E+01   0.248778566890E+01
 TEMPERATURE [K]              =                     532.191              582.558
 *******************************************************************************

 FOBSH| *** OFF-DIAGONAL GRADIENT CALCULATION
 FOBSH| Put former active state           3 in new active state           3
 RANDOM_NUMBER_HOPPING_PROBA   6.3990691283266954E-002
 FOBSH| ACTIVE STATE =            3

 ENERGY| Total FORCE_EVAL ( MIXED ) energy (a.u.):             2.596097175373302

 FOBSH| CASE1: no hop and no trivial crossing
 ENTER integrator.F
 STEP NUMBER                  =           33
 CPU TIME [s]                 =    8.3912997972220182E-002   1.5712888113674561     

 *******************************************************************************
 ENSEMBLE TYPE                =                                              NVE
 STEP NUMBER                  =                                               33
 TIME [fs]                    =                                         3.300000
 CONSERVED QUANTITY [hartree] =                               0.485858888630E+01

                                              INSTANTANEOUS             AVERAGES
 CPU TIME [s]                 =                        0.08                 1.57
 ENERGY DRIFT PER ATOM [K]    =          0.817292867071E-01  -0.222693925367E-02
 POTENTIAL ENERGY[hartree]    =          0.259609717537E+01   0.237739035816E+01
 KINETIC ENERGY [hartree]     =          0.226249171093E+01   0.248095857927E+01
 TEMPERATURE [K]              =                     529.802              580.959
 *******************************************************************************

 FOBSH| *** OFF-DIAGONAL GRADIENT CALCULATION
 FOBSH| Put former active state           3 in new active state           3
 RANDOM_NUMBER_HOPPING_PROBA  0.44240387110505380     
 FOBSH| ACTIVE STATE =            3

 ENERGY| Total FORCE_EVAL ( MIXED ) energy (a.u.):             2.603512572257821

 FOBSH| CASE1: no hop and no trivial crossing
 ENTER integrator.F
 STEP NUMBER                  =           34
 CPU TIME [s]                 =    8.3815204910933971E-002   1.5275395876481468     

 *******************************************************************************
 ENSEMBLE TYPE                =                                              NVE
 STEP NUMBER                  =                                               34
 TIME [fs]                    =                                         3.400000
 CONSERVED QUANTITY [hartree] =                               0.485859878369E+01

                                              INSTANTANEOUS             AVERAGES
 CPU TIME [s]                 =                        0.08                 1.53
 ENERGY DRIFT PER ATOM [K]    =          0.852018937127E-01   0.344497010050E-03
 POTENTIAL ENERGY[hartree]    =          0.260351257226E+01   0.238404101151E+01
 KINETIC ENERGY [hartree]     =          0.225508621144E+01   0.247431527433E+01
 TEMPERATURE [K]              =                     528.068              579.404
 *******************************************************************************

 FOBSH| *** OFF-DIAGONAL GRADIENT CALCULATION
 FOBSH| Put former active state           3 in new active state           3
 RANDOM_NUMBER_HOPPING_PROBA  0.37053832739404691     
 FOBSH| ACTIVE STATE =            3

 ENERGY| Total FORCE_EVAL ( MIXED ) energy (a.u.):             2.607967327358825

 FOBSH| CASE1: no hop and no trivial crossing
 ENTER integrator.F
 STEP NUMBER                  =           35
 CPU TIME [s]                 =    8.3431325852870941E-002   1.4862793515968531     

 *******************************************************************************
 ENSEMBLE TYPE                =                                              NVE
 STEP NUMBER                  =                                               35
 TIME [fs]                    =                                         3.500000
 CONSERVED QUANTITY [hartree] =                               0.485860617583E+01

                                              INSTANTANEOUS             AVERAGES
 CPU TIME [s]                 =                        0.08                 1.49
 ENERGY DRIFT PER ATOM [K]    =          0.877955027338E-01   0.284309717359E-02
 POTENTIAL ENERGY[hartree]    =          0.260796732736E+01   0.239043890625E+01
 KINETIC ENERGY [hartree]     =          0.225063884847E+01   0.246792451931E+01
 TEMPERATURE [K]              =                     527.026              577.907
 *******************************************************************************

 FOBSH| *** OFF-DIAGONAL GRADIENT CALCULATION
 FOBSH| New map:            1           2           3           0           0           6           7           8
 FOBSH! New map again:           1           2           3           0           0           6           7           8
 FOBSH| Put former active state           3 in new active state           3
 RANDOM_NUMBER_HOPPING_PROBA  0.79109232280105435     
 FOBSH| ACTIVE STATE =            3

 ENERGY| Total FORCE_EVAL ( MIXED ) energy (a.u.):             2.609340098667941

 FOBSH| CASE1: no hop and no trivial crossing
 ENTER integrator.F
 STEP NUMBER                  =           36
 CPU TIME [s]                 =    8.3575351163744926E-002   1.4473153515848223     

 *******************************************************************************
 ENSEMBLE TYPE                =                                              NVE
 STEP NUMBER                  =                                               36
 TIME [fs]                    =                                         3.600000
 CONSERVED QUANTITY [hartree] =                               0.485861094630E+01

                                              INSTANTANEOUS             AVERAGES
 CPU TIME [s]                 =                        0.08                 1.45
 ENERGY DRIFT PER ATOM [K]    =          0.894692746513E-01   0.524937988130E-02
 POTENTIAL ENERGY[hartree]    =          0.260934009867E+01   0.239651949493E+01
 KINETIC ENERGY [hartree]     =          0.224927084763E+01   0.246185080620E+01
 TEMPERATURE [K]              =                     526.706              576.485
 *******************************************************************************

 FOBSH| *** OFF-DIAGONAL GRADIENT CALCULATION
 FOBSH| New map:            1           2           3           0           0           6           7           8
 FOBSH! New map again:           1           2           3           0           0           6           7           8
 FOBSH| Put former active state           3 in new active state           3
 RANDOM_NUMBER_HOPPING_PROBA   9.1827710182444136E-002
 FOBSH| ACTIVE STATE =            3

 ENERGY| Total FORCE_EVAL ( MIXED ) energy (a.u.):             2.607551421346908

 FOBSH| CASE1: no hop and no trivial crossing
 ENTER integrator.F
 STEP NUMBER                  =           37
 CPU TIME [s]                 =    8.2659041043370962E-002   1.4104327485972157     

 *******************************************************************************
 ENSEMBLE TYPE                =                                              NVE
 STEP NUMBER                  =                                               37
 TIME [fs]                    =                                         3.700000
 CONSERVED QUANTITY [hartree] =                               0.485861301443E+01

                                              INSTANTANEOUS             AVERAGES
 CPU TIME [s]                 =                        0.08                 1.41
 ENERGY DRIFT PER ATOM [K]    =          0.901949011141E-01   0.754520477948E-02
 POTENTIAL ENERGY[hartree]    =          0.260755142135E+01   0.240222306051E+01
 KINETIC ENERGY [hartree]     =          0.225106159309E+01   0.245615380044E+01
 TEMPERATURE [K]              =                     527.125              575.151
 *******************************************************************************

 FOBSH| *** OFF-DIAGONAL GRADIENT CALCULATION
 FOBSH| Put former active state           3 in new active state           3
 RANDOM_NUMBER_HOPPING_PROBA  0.93278955296152910     
 FOBSH| ACTIVE STATE =            3

 ENERGY| Total FORCE_EVAL ( MIXED ) energy (a.u.):             2.602564942978207

 FOBSH| CASE1: no hop and no trivial crossing
 ENTER integrator.F
 STEP NUMBER                  =           38
 CPU TIME [s]                 =    8.3745412994176149E-002   1.3755199239760831     

 *******************************************************************************
 ENSEMBLE TYPE                =                                              NVE
 STEP NUMBER                  =                                               38
 TIME [fs]                    =                                         3.800000
 CONSERVED QUANTITY [hartree] =                               0.485861238066E+01

                                              INSTANTANEOUS             AVERAGES
 CPU TIME [s]                 =                        0.08                 1.38
 ENERGY DRIFT PER ATOM [K]    =          0.899725363876E-01   0.971434508496E-02
 POTENTIAL ENERGY[hartree]    =          0.260256494298E+01   0.240749521531E+01
 KINETIC ENERGY [hartree]     =          0.225604743769E+01   0.245088784353E+01
 TEMPERATURE [K]              =                     528.293              573.918
 *******************************************************************************

 FOBSH| *** OFF-DIAGONAL GRADIENT CALCULATION
 FOBSH| Put former active state           3 in new active state           3
 RANDOM_NUMBER_HOPPING_PROBA  0.66895875268229765     
 FOBSH| ACTIVE STATE =            3

 ENERGY| Total FORCE_EVAL ( MIXED ) energy (a.u.):             2.594387963896368

 FOBSH| CASE1: no hop and no trivial crossing
 ENTER integrator.F
 STEP NUMBER                  =           39
 CPU TIME [s]                 =    8.3729586098343134E-002   1.3423970947997308     

 *******************************************************************************
 ENSEMBLE TYPE                =                                              NVE
 STEP NUMBER                  =                                               39
 TIME [fs]                    =                                         3.900000
 CONSERVED QUANTITY [hartree] =                               0.485860900052E+01

                                              INSTANTANEOUS             AVERAGES
 CPU TIME [s]                 =                        0.08                 1.34
 ENERGY DRIFT PER ATOM [K]    =          0.887865751003E-01   0.117418381623E-01
 POTENTIAL ENERGY[hartree]    =          0.259438796390E+01   0.241228733707E+01
 KINETIC ENERGY [hartree]     =          0.226422103662E+01   0.244610151515E+01
 TEMPERATURE [K]              =                     530.207              572.797
 *******************************************************************************

 FOBSH| *** OFF-DIAGONAL GRADIENT CALCULATION
 FOBSH| Put former active state           3 in new active state           3
 RANDOM_NUMBER_HOPPING_PROBA   7.0495669884397497E-002
 FOBSH| ACTIVE STATE =            3

 ENERGY| Total FORCE_EVAL ( MIXED ) energy (a.u.):             2.583071571672455

 FOBSH| CASE1: no hop and no trivial crossing
 ENTER integrator.F
 STEP NUMBER                  =           40
 CPU TIME [s]                 =    8.3963070064783096E-002   1.3109362441813572     

 *******************************************************************************
 ENSEMBLE TYPE                =                                              NVE
 STEP NUMBER                  =                                               40
 TIME [fs]                    =                                         4.000000
 CONSERVED QUANTITY [hartree] =                               0.485860291494E+01

                                              INSTANTANEOUS             AVERAGES
 CPU TIME [s]                 =                        0.08                 1.31
 ENERGY DRIFT PER ATOM [K]    =          0.866513848806E-01   0.136145768302E-01
 POTENTIAL ENERGY[hartree]    =          0.258307157167E+01   0.241655694293E+01
 KINETIC ENERGY [hartree]     =          0.227553134327E+01   0.244183726085E+01
 TEMPERATURE [K]              =                     532.855              571.799
 *******************************************************************************

 FOBSH| *** OFF-DIAGONAL GRADIENT CALCULATION
 FOBSH| Put former active state           3 in new active state           3
 RANDOM_NUMBER_HOPPING_PROBA  0.44837893062802447     
 FOBSH| ACTIVE STATE =            3

 ENERGY| Total FORCE_EVAL ( MIXED ) energy (a.u.):             2.568710143302956

 FOBSH| CASE1: no hop and no trivial crossing
 ENTER integrator.F
 STEP NUMBER                  =           41
 CPU TIME [s]                 =    8.2715598866343498E-002   1.2809796430761131     

 *******************************************************************************
 ENSEMBLE TYPE                =                                              NVE
 STEP NUMBER                  =                                               41
 TIME [fs]                    =                                         4.100000
 CONSERVED QUANTITY [hartree] =                               0.485859424003E+01

                                              INSTANTANEOUS             AVERAGES
 CPU TIME [s]                 =                        0.08                 1.28
 ENERGY DRIFT PER ATOM [K]    =          0.836077018255E-01   0.153217262204E-01
 POTENTIAL ENERGY[hartree]    =          0.256871014330E+01   0.242026799660E+01
 KINETIC ENERGY [hartree]     =          0.228988409673E+01   0.243813108612E+01
 TEMPERATURE [K]              =                     536.216              570.931
 *******************************************************************************

 FOBSH| *** OFF-DIAGONAL GRADIENT CALCULATION
 FOBSH| Put former active state           3 in new active state           3
 RANDOM_NUMBER_HOPPING_PROBA  0.53199482212190596     
 FOBSH| ACTIVE STATE =            3

 ENERGY| Total FORCE_EVAL ( MIXED ) energy (a.u.):             2.551440186880995

 FOBSH| CASE1: no hop and no trivial crossing
 ENTER integrator.F
 STEP NUMBER                  =           42
 CPU TIME [s]                 =    8.3880994003266096E-002   1.2524772942886642     

 *******************************************************************************
 ENSEMBLE TYPE                =                                              NVE
 STEP NUMBER                  =                                               42
 TIME [fs]                    =                                         4.200000
 CONSERVED QUANTITY [hartree] =                               0.485858302895E+01

                                              INSTANTANEOUS             AVERAGES
 CPU TIME [s]                 =                        0.08                 1.25
 ENERGY DRIFT PER ATOM [K]    =          0.796741725103E-01   0.168539273225E-01
 POTENTIAL ENERGY[hartree]    =          0.255144018688E+01   0.242339114399E+01
 KINETIC ENERGY [hartree]     =          0.230714284207E+01   0.243501231840E+01
 TEMPERATURE [K]              =                     540.257              570.200
 *******************************************************************************

 FOBSH| *** OFF-DIAGONAL GRADIENT CALCULATION
 FOBSH| Put former active state           3 in new active state           3
 RANDOM_NUMBER_HOPPING_PROBA  0.57730720845980099     
 FOBSH| ACTIVE STATE =            3

 ENERGY| Total FORCE_EVAL ( MIXED ) energy (a.u.):             2.531438773152839

 FOBSH| CASE1: no hop and no trivial crossing
 ENTER integrator.F
 STEP NUMBER                  =           43
 CPU TIME [s]                 =    8.2609032746404409E-002   1.2252710556481465     

 *******************************************************************************
 ENSEMBLE TYPE                =                                              NVE
 STEP NUMBER                  =                                               43
 TIME [fs]                    =                                         4.300000
 CONSERVED QUANTITY [hartree] =                               0.485856940930E+01

                                              INSTANTANEOUS             AVERAGES
 CPU TIME [s]                 =                        0.08                 1.23
 ENERGY DRIFT PER ATOM [K]    =          0.748955732955E-01   0.182037330428E-01
 POTENTIAL ENERGY[hartree]    =          0.253143877315E+01   0.242590387955E+01
 KINETIC ENERGY [hartree]     =          0.232713063615E+01   0.243250344207E+01
 TEMPERATURE [K]              =                     544.938              569.613
 *******************************************************************************

 FOBSH| *** OFF-DIAGONAL GRADIENT CALCULATION
 FOBSH| Put former active state           3 in new active state           3
 RANDOM_NUMBER_HOPPING_PROBA   1.6928433561957019E-002
 FOBSH| ACTIVE STATE =            3

 ENERGY| Total FORCE_EVAL ( MIXED ) energy (a.u.):             2.508921333739679

 FOBSH| CASE1: no hop and no trivial crossing
 ENTER integrator.F
 STEP NUMBER                  =           44
 CPU TIME [s]                 =    8.3584644366055727E-002   1.1993236372099172     

 *******************************************************************************
 ENSEMBLE TYPE                =                                              NVE
 STEP NUMBER                  =                                               44
 TIME [fs]                    =                                         4.400000
 CONSERVED QUANTITY [hartree] =                               0.485855358478E+01

                                              INSTANTANEOUS             AVERAGES
 CPU TIME [s]                 =                        0.08                 1.20
 ENERGY DRIFT PER ATOM [K]    =          0.693433698499E-01   0.193659975157E-01
 POTENTIAL ENERGY[hartree]    =          0.250892133374E+01   0.242779063987E+01
 KINETIC ENERGY [hartree]     =          0.234963225104E+01   0.243062000591E+01
 TEMPERATURE [K]              =                     550.207              569.172
 *******************************************************************************

 FOBSH| *** OFF-DIAGONAL GRADIENT CALCULATION
 FOBSH| Put former active state           3 in new active state           3
 RANDOM_NUMBER_HOPPING_PROBA  0.13144936141126493     
 FOBSH| ACTIVE STATE =            3

 ENERGY| Total FORCE_EVAL ( MIXED ) energy (a.u.):             2.484138882030506

 FOBSH| CASE1: no hop and no trivial crossing
 ENTER integrator.F
 STEP NUMBER                  =           45
 CPU TIME [s]                 =    8.1994610838592052E-002   1.1744941032905545     

 *******************************************************************************
 ENSEMBLE TYPE                =                                              NVE
 STEP NUMBER                  =                                               45
 TIME [fs]                    =                                         4.500000
 CONSERVED QUANTITY [hartree] =                               0.485853573523E+01

                                              INSTANTANEOUS             AVERAGES
 CPU TIME [s]                 =                        0.08                 1.17
 ENERGY DRIFT PER ATOM [K]    =          0.630806646220E-01   0.203374345625E-01
 POTENTIAL ENERGY[hartree]    =          0.248413888203E+01   0.242904282303E+01
 KINETIC ENERGY [hartree]     =          0.237439685320E+01   0.242937060252E+01
 TEMPERATURE [K]              =                     556.006              568.879
 *******************************************************************************

 FOBSH| *** OFF-DIAGONAL GRADIENT CALCULATION
 FOBSH| Put former active state           3 in new active state           3
 RANDOM_NUMBER_HOPPING_PROBA   6.6529961963703879E-002
 FOBSH| ACTIVE STATE =            3

 ENERGY| Total FORCE_EVAL ( MIXED ) energy (a.u.):             2.457375012261082

 FOBSH| CASE1: no hop and no trivial crossing
 ENTER integrator.F
 STEP NUMBER                  =           46
 CPU TIME [s]                 =    8.2859025802463293E-002   1.1507629059538569     

 *******************************************************************************
 ENSEMBLE TYPE                =                                              NVE
 STEP NUMBER                  =                                               46
 TIME [fs]                    =                                         4.600000
 CONSERVED QUANTITY [hartree] =                               0.485851610541E+01

                                              INSTANTANEOUS             AVERAGES
 CPU TIME [s]                 =                        0.08                 1.15
 ENERGY DRIFT PER ATOM [K]    =          0.561933319967E-01   0.211169105937E-01
 POTENTIAL ENERGY[hartree]    =          0.245737501226E+01   0.242965874019E+01
 KINETIC ENERGY [hartree]     =          0.240114109315E+01   0.242875691753E+01
 TEMPERATURE [K]              =                     562.269              568.736
 *******************************************************************************

 FOBSH| *** OFF-DIAGONAL GRADIENT CALCULATION
 FOBSH| Put former active state           3 in new active state           3
 RANDOM_NUMBER_HOPPING_PROBA  0.13624522447097273     
 FOBSH| ACTIVE STATE =            3

 ENERGY| Total FORCE_EVAL ( MIXED ) energy (a.u.):             2.428942214112873

 FOBSH| CASE1: no hop and no trivial crossing
 ENTER integrator.F
 STEP NUMBER                  =           47
 CPU TIME [s]                 =    8.3927355241030455E-002   1.1280642772152860     

 *******************************************************************************
 ENSEMBLE TYPE                =                                              NVE
[...]

 FOBSH| *** OFF-DIAGONAL GRADIENT CALCULATION
 FOBSH| New map:            1           2           3           4           5           0           0           8
 FOBSH! New map again:           1           2           3           4           5           0           0           8
 FOBSH| Put former active state           1 in new active state           1
 RANDOM_NUMBER_HOPPING_PROBA  0.82195477349837154     
 FOBSH| ACTIVE STATE =            1

 ENERGY| Total FORCE_EVAL ( MIXED ) energy (a.u.):             2.515023524843658

 FOBSH| CASE1: no hop and no trivial crossing
 ENTER integrator.F
 STEP NUMBER                  =          191
 CPU TIME [s]                 =    8.2267795223742723E-002  0.34041981591175047     

 *******************************************************************************
 ENSEMBLE TYPE                =                                              NVE
 STEP NUMBER                  =                                              191
 TIME [fs]                    =                                        19.100000
 CONSERVED QUANTITY [hartree] =                               0.485840692759E+01

                                              INSTANTANEOUS             AVERAGES
 CPU TIME [s]                 =                        0.08                 0.34
 ENERGY DRIFT PER ATOM [K]    =          0.178871210481E-01   0.217338471188E-02
 POTENTIAL ENERGY[hartree]    =          0.251502352484E+01   0.239172450723E+01
 KINETIC ENERGY [hartree]     =          0.234338340274E+01   0.246663751966E+01
 TEMPERATURE [K]              =                     548.744              577.606
 *******************************************************************************

 FOBSH| *** OFF-DIAGONAL GRADIENT CALCULATION
 FOBSH| Put former active state           1 in new active state           1
 RANDOM_NUMBER_HOPPING_PROBA  0.47798716356543131     
 FOBSH| ACTIVE STATE =            1

 ENERGY| Total FORCE_EVAL ( MIXED ) energy (a.u.):             2.545404152883171

 FOBSH| CASE1: no hop and no trivial crossing
 ENTER integrator.F
 STEP NUMBER                  =          192
 CPU TIME [s]                 =    7.6105409767478704E-002  0.33904317837974901     

 *******************************************************************************
 ENSEMBLE TYPE                =                                              NVE
 STEP NUMBER                  =                                              192
 TIME [fs]                    =                                        19.200000
 CONSERVED QUANTITY [hartree] =                               0.485843083971E+01

                                              INSTANTANEOUS             AVERAGES
 CPU TIME [s]                 =                        0.08                 0.34
 ENERGY DRIFT PER ATOM [K]    =          0.262769465152E-01   0.229892409627E-02
 POTENTIAL ENERGY[hartree]    =          0.254540415288E+01   0.239252492205E+01
 KINETIC ENERGY [hartree]     =          0.231302668683E+01   0.246583746324E+01
 TEMPERATURE [K]              =                     541.635              577.419
 *******************************************************************************

 FOBSH| *** OFF-DIAGONAL GRADIENT CALCULATION
 FOBSH| Put former active state           1 in new active state           1
 RANDOM_NUMBER_HOPPING_PROBA  0.19068212869155288     
 FOBSH| ACTIVE STATE =            1

 ENERGY| Total FORCE_EVAL ( MIXED ) energy (a.u.):             2.574915785247218

 FOBSH| CASE1: no hop and no trivial crossing
 ENTER integrator.F
 STEP NUMBER                  =          193
 CPU TIME [s]                 =    8.3140512928366661E-002  0.33771725783336881     

 *******************************************************************************
 ENSEMBLE TYPE                =                                              NVE
 STEP NUMBER                  =                                              193
 TIME [fs]                    =                                        19.300000
 CONSERVED QUANTITY [hartree] =                               0.485845420886E+01

                                              INSTANTANEOUS             AVERAGES
 CPU TIME [s]                 =                        0.08                 0.34
 ENERGY DRIFT PER ATOM [K]    =          0.344762638902E-01   0.246564606412E-02
 POTENTIAL ENERGY[hartree]    =          0.257491578525E+01   0.239346995243E+01
 KINETIC ENERGY [hartree]     =          0.228353842361E+01   0.246489290863E+01
 TEMPERATURE [K]              =                     534.730              577.197
 *******************************************************************************

 FOBSH| *** OFF-DIAGONAL GRADIENT CALCULATION
 FOBSH| Put former active state           1 in new active state           1
 RANDOM_NUMBER_HOPPING_PROBA   3.9019510409808292E-002
 FOBSH| ACTIVE STATE =            1

 ENERGY| Total FORCE_EVAL ( MIXED ) energy (a.u.):             2.603188984491350

 FOBSH| CASE1: no hop and no trivial crossing
 ENTER integrator.F
 STEP NUMBER                  =          194
 CPU TIME [s]                 =    8.3593089133501053E-002  0.33640733943800866     

 *******************************************************************************
 ENSEMBLE TYPE                =                                              NVE
 STEP NUMBER                  =                                              194
 TIME [fs]                    =                                        19.400000
 CONSERVED QUANTITY [hartree] =                               0.485847674821E+01

                                              INSTANTANEOUS             AVERAGES
 CPU TIME [s]                 =                        0.08                 0.34
 ENERGY DRIFT PER ATOM [K]    =          0.423844343457E-01   0.267141301402E-02
 POTENTIAL ENERGY[hartree]    =          0.260318898449E+01   0.239455097837E+01
 KINETIC ENERGY [hartree]     =          0.225528776371E+01   0.246381246974E+01
 TEMPERATURE [K]              =                     528.115              576.944
 *******************************************************************************

 FOBSH| *** OFF-DIAGONAL GRADIENT CALCULATION
 FOBSH| Put former active state           1 in new active state           1
 RANDOM_NUMBER_HOPPING_PROBA  0.20961789847363788     
 FOBSH| ACTIVE STATE =            1

 ENERGY| Total FORCE_EVAL ( MIXED ) energy (a.u.):             2.629867477824125

 FOBSH| CASE1: no hop and no trivial crossing
 ENTER integrator.F
 STEP NUMBER                  =          195
 CPU TIME [s]                 =    8.3310496062040329E-002  0.33510940690787550     

 *******************************************************************************
 ENSEMBLE TYPE                =                                              NVE
 STEP NUMBER                  =                                              195
 TIME [fs]                    =                                        19.500000
 CONSERVED QUANTITY [hartree] =                               0.485849818241E+01

                                              INSTANTANEOUS             AVERAGES
 CPU TIME [s]                 =                        0.08                 0.34
 ENERGY DRIFT PER ATOM [K]    =          0.499048560091E-01   0.291363579861E-02
 POTENTIAL ENERGY[hartree]    =          0.262986747782E+01   0.239575772965E+01
 KINETIC ENERGY [hartree]     =          0.222863070459E+01   0.246260640941E+01
 TEMPERATURE [K]              =                     521.873              576.662
 *******************************************************************************

 FOBSH| *** OFF-DIAGONAL GRADIENT CALCULATION
 FOBSH| Put former active state           1 in new active state           1
 RANDOM_NUMBER_HOPPING_PROBA  0.25814674508164709     
 FOBSH| ACTIVE STATE =            1

 ENERGY| Total FORCE_EVAL ( MIXED ) energy (a.u.):             2.654612618311161

 FOBSH| CASE1: no hop and no trivial crossing
 ENTER integrator.F
 STEP NUMBER                  =          196
 CPU TIME [s]                 =    8.1385718192905188E-002  0.33381489829198274     

 *******************************************************************************
 ENSEMBLE TYPE                =                                              NVE
 STEP NUMBER                  =                                              196
 TIME [fs]                    =                                        19.600000
 CONSERVED QUANTITY [hartree] =                               0.485851823149E+01

                                              INSTANTANEOUS             AVERAGES
 CPU TIME [s]                 =                        0.08                 0.33
 ENERGY DRIFT PER ATOM [K]    =          0.569392875092E-01   0.318927687877E-02
 POTENTIAL ENERGY[hartree]    =          0.265461261831E+01   0.239707841785E+01
 KINETIC ENERGY [hartree]     =          0.220390561317E+01   0.246128650738E+01
 TEMPERATURE [K]              =                     516.083              576.353
 *******************************************************************************

 FOBSH| *** OFF-DIAGONAL GRADIENT CALCULATION
 FOBSH| Put former active state           1 in new active state           1
 RANDOM_NUMBER_HOPPING_PROBA  0.71866270817859179     
 FOBSH| ACTIVE STATE =            1

 ENERGY| Total FORCE_EVAL ( MIXED ) energy (a.u.):             2.677107662584164

 FOBSH| CASE1: no hop and no trivial crossing
 ENTER integrator.F
 STEP NUMBER                  =          197
 CPU TIME [s]                 =    7.5786861591041088E-002  0.33250511130365301     

 *******************************************************************************
 ENSEMBLE TYPE                =                                              NVE
 STEP NUMBER                  =                                              197
 TIME [fs]                    =                                        19.700000
 CONSERVED QUANTITY [hartree] =                               0.485853665404E+01

                                              INSTANTANEOUS             AVERAGES
 CPU TIME [s]                 =                        0.08                 0.33
 ENERGY DRIFT PER ATOM [K]    =          0.634030371454E-01   0.349493048418E-02
 POTENTIAL ENERGY[hartree]    =          0.267710766258E+01   0.239849988610E+01
 KINETIC ENERGY [hartree]     =          0.218142899145E+01   0.245986591086E+01
 TEMPERATURE [K]              =                     510.819              576.020
 *******************************************************************************

 FOBSH| *** OFF-DIAGONAL GRADIENT CALCULATION
 FOBSH| Put former active state           1 in new active state           1
 RANDOM_NUMBER_HOPPING_PROBA  0.40493253623739994     
 FOBSH| ACTIVE STATE =            1

 ENERGY| Total FORCE_EVAL ( MIXED ) energy (a.u.):             2.697061717829409

 FOBSH| CASE1: no hop and no trivial crossing
 ENTER integrator.F
 STEP NUMBER                  =          198
 CPU TIME [s]                 =    8.3322020247578621E-002  0.33124661084377388     

 *******************************************************************************
 ENSEMBLE TYPE                =                                              NVE
 STEP NUMBER                  =                                              198
 TIME [fs]                    =                                        19.800000
 CONSERVED QUANTITY [hartree] =                               0.485855321888E+01

                                              INSTANTANEOUS             AVERAGES
 CPU TIME [s]                 =                        0.08                 0.33
 ENERGY DRIFT PER ATOM [K]    =          0.692149887707E-01   0.382684997048E-02
 POTENTIAL ENERGY[hartree]    =          0.269706171783E+01   0.240000777414E+01
 KINETIC ENERGY [hartree]     =          0.216149150105E+01   0.245835896939E+01
 TEMPERATURE [K]              =                     506.151              575.667
 *******************************************************************************

 FOBSH| *** OFF-DIAGONAL GRADIENT CALCULATION
 FOBSH| Put former active state           1 in new active state           1
 RANDOM_NUMBER_HOPPING_PROBA  0.39979889317373046     
 FOBSH| ACTIVE STATE =            1

 ENERGY| Total FORCE_EVAL ( MIXED ) energy (a.u.):             2.714213447946642

 FOBSH| CASE1: no hop and no trivial crossing
 ENTER integrator.F
 STEP NUMBER                  =          199
 CPU TIME [s]                 =    8.3441967144608498E-002  0.33000136137794894     

 *******************************************************************************
 ENSEMBLE TYPE                =                                              NVE
 STEP NUMBER                  =                                              199
 TIME [fs]                    =                                        19.900000
 CONSERVED QUANTITY [hartree] =                               0.485856772449E+01

                                              INSTANTANEOUS             AVERAGES
 CPU TIME [s]                 =                        0.08                 0.33
 ENERGY DRIFT PER ATOM [K]    =          0.743044387557E-01   0.418100870809E-02
 POTENTIAL ENERGY[hartree]    =          0.271421344795E+01   0.240158669712E+01
 KINETIC ENERGY [hartree]     =          0.214435427654E+01   0.245678105636E+01
 TEMPERATURE [K]              =                     502.138              575.298
 *******************************************************************************

 FOBSH| *** OFF-DIAGONAL GRADIENT CALCULATION
 FOBSH| Put former active state           1 in new active state           1
 RANDOM_NUMBER_HOPPING_PROBA  0.61636574408134326     
 FOBSH| ACTIVE STATE =            1

 ENERGY| Total FORCE_EVAL ( MIXED ) energy (a.u.):             2.728334315154354

 FOBSH| CASE1: no hop and no trivial crossing
 ENTER integrator.F
 STEP NUMBER                  =          200
 CPU TIME [s]                 =    8.3743539638817310E-002  0.32877007226925331     

 *******************************************************************************
 ENSEMBLE TYPE                =                                              NVE
 STEP NUMBER                  =                                              200
 TIME [fs]                    =                                        20.000000
 CONSERVED QUANTITY [hartree] =                               0.485857998380E+01

                                              INSTANTANEOUS             AVERAGES
 CPU TIME [s]                 =                        0.08                 0.33
 ENERGY DRIFT PER ATOM [K]    =          0.786057499350E-01   0.455313241423E-02
 POTENTIAL ENERGY[hartree]    =          0.272833431515E+01   0.240322043521E+01
 KINETIC ENERGY [hartree]     =          0.213024566865E+01   0.245514837942E+01
 TEMPERATURE [K]              =                     498.834              574.916
 *******************************************************************************


 -------------------------------------------------------------------------------
 -                                                                             -
 -                                DBCSR STATISTICS                             -
 -                                                                             -
 -------------------------------------------------------------------------------
 COUNTER                                    TOTAL       BLAS       SMM       ACC
 flops total                                    0       0.0%      0.0%      0.0%
 flops max/rank                                 0       0.0%      0.0%      0.0%
 matmuls inhomo. stacks                         0       0.0%      0.0%      0.0%
 matmuls total                                  0       0.0%      0.0%      0.0%
 number of processed stacks                     0       0.0%      0.0%      0.0%
 average stack size                                     0.0       0.0       0.0
 marketing flops                     0.000000E+00
 -------------------------------------------------------------------------------

 MEMORY| Estimated peak process memory [MiB]                                 127

 -------------------------------------------------------------------------------
 -                                                                             -
 -                           R E F E R E N C E S                               -
 -                                                                             -
 -------------------------------------------------------------------------------
 
 CP2K version 4.0 (Development Version), the CP2K developers group (2015).
 CP2K is freely available from https://www.cp2k.org/ .

 Borstnik, U; VandeVondele, J; Weber, V; Hutter, J. 
 PARALLEL COMPUTING, 40 (5-6), 47-58 (2014). 
 Sparse matrix multiplication: The distributed block-compressed sparse
 row library.
 http://dx.doi.org/10.1016/j.parco.2014.03.012


 Hutter, J; Iannuzzi, M; Schiffmann, F; VandeVondele, J. 
 WILEY INTERDISCIPLINARY REVIEWS-COMPUTATIONAL MOLECULAR SCIENCE, 4 (1), 15-25 (2014). 
 CP2K: atomistic simulations of condensed matter systems.
 http://dx.doi.org/10.1002/wcms.1159


 Frigo, M; Johnson, SG. 
 PROCEEDINGS OF THE IEEE, 93 (2), 216-231 (2005). 
 The design and implementation of FFTW3.
 http://dx.doi.org/10.1109/JPROC.2004.840301


 -------------------------------------------------------------------------------
 -                                                                             -
 -                                T I M I N G                                  -
 -                                                                             -
 -------------------------------------------------------------------------------
 SUBROUTINE                       CALLS  ASD         SELF TIME        TOTAL TIME
                                MAXIMUM       AVERAGE  MAXIMUM  AVERAGE  MAXIMUM
 CP2K                                 1  1.0    0.056    0.056   90.954   90.954
 qs_mol_dyn_low                       1  2.0    9.340    9.340   65.865   65.865
 parser_read_line               2376766  3.1   14.119   14.119   53.913   53.913
 parser_read_line_low              2929  4.8   39.771   39.771   39.794   39.794
 topology_control                    10  4.0    0.075    0.075   22.642   22.642
 fist_create_force_env                9  2.0    0.000    0.000   22.021   22.021
 fist_init                            9  3.0    0.032    0.032   22.021   22.021
 connectivity_control                10  5.0    0.032    0.032   21.680   21.680
 read_topology_psf                  500  6.0    9.445    9.445   21.592   21.592
 velocity_verlet                    200  3.0   10.108   10.108   16.195   16.195
 fist_calc_energy_force            1845  4.0    0.050    0.050    6.367    6.367
 force_nonbond                      205  5.0    3.229    3.229    3.229    3.229
 mixed_create_force_env               1  2.0    0.001    0.001    2.987    2.987
 mixed_init                           1  3.0    0.000    0.000    2.986    2.986
 force_intra_control               1845  5.0    2.670    2.670    2.670    2.670
 force_field_control                  9  4.0    0.015    0.015    2.329    2.329
 read_force_field_charmm              9  5.0    0.449    0.449    2.279    2.279
 -------------------------------------------------------------------------------

 The number of warnings for this run is : 1
 
 -------------------------------------------------------------------------------
  **** **** ******  **  PROGRAM ENDED AT                 2021-01-14 05:48:47.092
 ***** ** ***  *** **   PROGRAM RAN ON                   bulstake.phys.ucl.ac.uk
 **    ****   ******    PROGRAM RAN BY                                 sgiannini
 ***** **    ** ** **   PROGRAM PROCESS ID                                 12729
  **** **  *******  **  PROGRAM STOPPED IN /scratch/sgiannini/FOB-SH-REGTESTS_/3
                                           2-XXXX_code_extension_V2/run-fssh-MTS
                                           1_NFF
