#     Step Nr.          Time[fs]        Kin.[a.u.]          Temp[K]            Pot.[a.u.]        Cons Qty[a.u.]        UsedTime[s]
       101           10.100000         2.188784279       512.541776071         2.669736853         4.858521132         0.827491499
       102           10.200000         2.211848839       517.942742520         2.646652993         4.858501832         0.236862060
       103           10.300000         2.237180972       523.874700620         2.621299925         4.858480897         0.288511140
       104           10.400000         2.264446830       530.259473860         2.594011796         4.858458626         0.211100703
       105           10.500000         2.293291192       537.013881146         2.565144077         4.858435269         0.198332373
       106           10.600000         2.323341968       544.050791235         2.535069187         4.858411156         0.166548824
       107           10.700000         2.354214920       551.280228076         2.504171635         4.858386556         0.184787896
       108           10.800000         2.385518516       558.610507616         2.472843278         4.858361794         0.188065371
       109           10.900000         2.416858884       565.949397856         2.441478299         4.858337183         0.225663986
       110           11.000000         2.447844772       573.205280673         2.410468265         4.858313037         0.261664936
       111           11.100000         2.478092366       580.288279137         2.380197255         4.858289621         0.269704124
       112           11.200000         2.507226625       587.110570839         2.351038242         4.858264867         0.267721605
       113           11.300000         2.534927522       593.597215846         2.323340810         4.858268332         0.388122559
       114           11.400000         2.560805080       599.656894652         2.297443693         4.858248773         0.215457307
       115           11.500000         2.584578289       605.223803572         2.273652856         4.858231144         0.265956737
       116           11.600000         2.605968542       610.232702049         2.252247022         4.858215564         0.236075804
       117           11.700000         2.624730147       614.626057186         2.233472044         4.858202191         0.230957991
       118           11.800000         2.640653066       618.354684505         2.217538129         4.858191194         0.223177161
       119           11.900000         2.653565381       621.378327048         2.204617322         4.858182704         0.304122765
       120           12.000000         2.663335322       623.666127951         2.194841486         4.858176807         0.226178547
       121           12.100000         2.669872737       625.196976952         2.188300831         4.858173568         0.216219060
       122           12.200000         2.673130062       625.959736120         2.185042936         4.858172998         0.200378211
       123           12.300000         2.673102699       625.953328465         2.185072412         4.858175111         0.194464339
       124           12.400000         2.669828895       625.186710542         2.188350957         4.858179851         0.202116286
       125           12.500000         2.663389068       623.678713443         2.194798089         4.858187157         0.202904420
       126           12.600000         2.653904502       621.457737994         2.204292389         4.858196890         0.236547785
       127           12.700000         2.641535644       618.561355433         2.216673291         4.858208935         0.255956160
       128           12.800000         2.626479846       615.035779516         2.231743268         4.858223114         0.263758630
       129           12.900000         2.608968593       610.935216124         2.249270635         4.858239228         0.229090853
       130           13.000000         2.589264318       606.321118518         2.268992737         4.858257055         0.255643334
       131           13.100000         2.567656876       601.261361461         2.290619481         4.858276357         0.239173271
       132           13.200000         2.544459627       595.829323582         2.313837239         4.858296866         0.157797020
       133           13.300000         2.520005241       590.102905184         2.338313050         4.858318290         0.167764740
       134           13.400000         2.494641305       584.163500103         2.363699075         4.858340381         0.153742665
       135           13.500000         2.468725680       578.094907143         2.389637122         4.858362802         0.153755479
       136           13.600000         2.442621723       571.982213260         2.415763554         4.858385277         0.187966127
       137           13.700000         2.416693527       565.910676683         2.441713973         4.858407499         0.180890836
       138           13.800000         2.391301091       559.964597744         2.467128085         4.858429176         0.196446186
       139           13.900000         2.366795519       554.226193348         2.491654482         4.858450001         0.159698118
       140           14.000000         2.343514439       548.774524789         2.514955270         4.858469709         0.266830580
       141           14.100000         2.321777570       543.684460242         2.536710475         4.858488045         0.208846437
       142           14.200000         2.301882545       539.025695403         2.556622218         4.858504764         0.203467997
       143           14.300000         2.284101006       534.861839786         2.574418636         4.858519642         0.208133228
       144           14.400000         2.268674989       531.249570495         2.589857487         4.858532476         0.225185128
       145           14.500000         2.255813773       528.237893986         2.602729329         4.858543102         0.205707192
       146           14.600000         2.245691143       525.867504703         2.612860229         4.858551373         0.224633524
       147           14.700000         2.238443121       524.170254696         2.620114061         4.858557183         0.207042504
       148           14.800000         2.234166237       523.168748052         2.624394218         4.858560454         0.204386996
       149           14.900000         2.232916250       522.876042061         2.625644889         4.858561139         0.226883553
       150           15.000000         2.234707426       523.295476837         2.623851811         4.858559236         0.231072180
       151           15.100000         2.239512396       524.420643976         2.619042369         4.858554765         0.214526583
       152           15.200000         2.247262557       526.235478440         2.611285231         4.858547788         0.209185528
       153           15.300000         2.257848988       528.714474814         2.600689406         4.858538394         0.238461770
       154           15.400000         2.271123889       531.823022946         2.587402825         4.858526714         0.208905013
       155           15.500000         2.286902574       535.517875536         2.571610321         4.858512895         0.211929403
       156           15.600000         2.304965953       539.747728673         2.553531169         4.858497122         0.206610274
       157           15.700000         2.325063414       544.453897540         2.533416175         4.858479588         0.200768204
       158           15.800000         2.346916144       549.571093115         2.511544402         4.858460546         0.207773456
       159           15.900000         2.370220779       555.028277215         2.488219471         4.858440249         0.205670010
       160           16.000000         2.394653466       560.749614536         2.463765489         4.858418955         0.204854297
       161           16.100000         2.419874153       566.655475391         2.438522789         4.858396942         0.205457868
       162           16.200000         2.445531070       572.663487275         2.412843440         4.858374510         0.194072433
       163           16.300000         2.471265401       578.689626811         2.387086563         4.858351963         0.205366476
       164           16.400000         2.496715948       584.649313715         2.361613633         4.858329581         0.166716060
       165           16.500000         2.521523993       590.458547264         2.336783671         4.858307663         0.099755326
       166           16.600000         2.545338035       596.035018015         2.312948464         4.858286499         0.144130990
       167           16.700000         2.567818377       601.299179650         2.290448011         4.858266387         0.194960633
       168           16.800000         2.588641618       606.175302652         2.269605947         4.858247565         0.180990342
       169           16.900000         2.607504968       610.592483003         2.250725337         4.858230305         0.184786990
       170           17.000000         2.624130279       614.485587533         2.234084570         4.858214848         0.203099063
       171           17.100000         2.638267754       617.796122365         2.219933637         4.858201390         0.155010227
       172           17.200000         2.649699257       620.473007012         2.208490861         4.858190118         0.158540601
       173           17.300000         2.658241250       622.473262716         2.199939925         4.858181175         0.238667853
       174           17.400000         2.663747297       623.762598982         2.194427395         4.858174691         0.143368779
       175           17.500000         2.666110008       624.315868891         2.192060753         4.858170762         0.163760375
       176           17.600000         2.665262612       624.117436273         2.192906830         4.858169442         0.158046184
       177           17.700000         2.661179931       623.161405716         2.196990838         4.858170769         0.113280280
       178           17.800000         2.653878760       621.451710108         2.204295959         4.858174720         0.156890782
       179           17.900000         2.643417863       619.002109675         2.214763396         4.858181259         0.108003691
       180           18.000000         2.629897370       615.836051989         2.228292954         4.858190324         0.171073029
       181           18.100000         2.613457579       611.986389941         2.244744210         4.858201790         0.165704587
       182           18.200000         2.594277291       607.494992958         2.263938254         4.858215544         0.086822025
       183           18.300000         2.572571687       602.412249679         2.285659729         4.858231417         0.150749706
       184           18.400000         2.548589654       596.796440873         2.309659559         4.858249212         0.151208486
       185           18.500000         2.522610737       590.713027247         2.335657972         4.858268709         0.078366065
       186           18.600000         2.494941700       584.233842616         2.363347974         4.858289674         0.130070722
       187           18.700000         2.465912698       577.436198646         2.392399138         4.858311836         0.090842048
       188           18.800000         2.435873231       570.401936848         2.422461696         4.858334927         0.144778099
       189           18.900000         2.405187707       563.216389571         2.453170958         4.858358665         0.118602945
       190           19.000000         2.374230916       555.967320453         2.484151861         4.858382777         0.169632973
       191           19.100000         2.343383411       548.743842535         2.515023520         4.858406931         0.163524223
       192           19.200000         2.313026697       541.635291732         2.545404144         4.858430841         0.133610697
       193           19.300000         2.283538436       534.730104240         2.574915777         4.858454213         0.150076931
       194           19.400000         2.255287776       528.114722611         2.603188975         4.858476752         0.117479632
       195           19.500000         2.228630717       521.872510221         2.629867468         4.858498185         0.160694139
       196           19.600000         2.203905626       516.082701608         2.654612608         4.858518234         0.085885424
       197           19.700000         2.181429006       510.819411333         2.677107652         4.858536658         0.137897765
       198           19.800000         2.161491516       506.150702657         2.697061706         4.858553222         0.166311307
       199           19.900000         2.144354292       502.137724530         2.714213436         4.858567727         0.085878521
       200           20.000000         2.130245686       498.833949863         2.728334302         4.858579988         0.126709271
