#     Step Nr.          Time[fs]        Kin.[a.u.]          Temp[K]            Pot.[a.u.]        Cons Qty[a.u.]        UsedTime[s]
         0            0.000000         2.412123729       564.840579357         2.440744520         4.852868249         0.000000000
         1            0.100000         2.440920801       571.583912979         2.411925256         4.852846058        65.848695692
         2            0.200000         2.468337019       578.003895485         2.384488167         4.852825186         0.080420063
         3            0.300000         2.494040968       584.022920644         2.358764947         4.852805915         0.078446767
         4            0.400000         2.517726859       589.569382639         2.335061626         4.852788485         0.079472926
         5            0.500000         2.539118451       594.578594524         2.313654668         4.852773118         0.078527099
         6            0.600000         2.557972518       598.993601154         2.294787473         4.852759991         0.078407526
         7            0.700000         2.574081921       602.765897240         2.278667367         4.852749288         0.085748589
         8            0.800000         2.587278191       605.856032357         2.265462933         4.852741124         0.077458010
         9            0.900000         2.597433613       608.234100463         2.255301994         4.852735606         0.077035817
        10            1.000000         2.604462783       609.880102601         2.248270004         4.852732788         0.076594830
        11            1.100000         2.608323603       610.784180418         2.244409107         4.852732709         0.077417608
        12            1.200000         2.609017687       610.946712224         2.243717651         4.852735338         0.076947968
        13            1.300000         2.606590164       610.378265720         2.246150480         4.852740644         0.077233953
        14            1.400000         2.601128957       609.099429449         2.251619584         4.852748542         0.076842075
        15            1.500000         2.592763523       607.140517981         2.259995402         4.852758925         0.076921193
        16            1.600000         2.581663031       604.541145530         2.271108603         4.852771634         0.075545066
        17            1.700000         2.568033944       601.349658474         2.284752547         4.852786491         0.075780387
        18            1.800000         2.552117149       597.622465073         2.300686147         4.852803296         0.075666300
        19            1.900000         2.534184691       593.423269290         2.318637132         4.852821823         0.075194501
        20            2.000000         2.514536085       588.822207599         2.338305718         4.852841803         0.080773351
        21            2.100000         2.493494208       583.894887357         2.359368760         4.852862968         0.075251398
        22            2.200000         2.471400884       578.721352699         2.381484145         4.852885029         0.075830255
        23            2.300000         2.448612273       573.385004282         2.404295428         4.852907700         0.075380881
        24            2.400000         2.425494084       567.971479628         2.427436566         4.852930650         0.075534810
        25            2.500000         2.402416623       562.567492250         2.450536941         4.852953565         0.075408966
        26            2.600000         2.379749713       557.259642291         2.473226418         4.852976131         0.074923673
        27            2.700000         2.357857707       552.133249703         2.495140348         4.852998055         0.075319001
        28            2.800000         2.337094644       547.271218679         2.515924394         4.853019038         0.075719069
        29            2.900000         2.317799443       542.752912984         2.535239344         4.853038788         0.074707792
        30            3.000000         2.300291297       538.653077113         2.552765740         4.853057037         0.075014479
        31            3.100000         2.284865357       535.040825825         2.568208163         4.853073520         0.074911661
        32            3.200000         2.271788650       531.978688149         2.581299377         4.853088027         0.075158462
        33            3.300000         2.261296432       529.521753463         2.591803920         4.853100352         0.079393514
        34            3.400000         2.253588994       527.716923277         2.599521322         4.853110316         0.075158793
        35            3.500000         2.248828870       526.602257842         2.604288910         4.853117780         0.074600764
        36            3.600000         2.247138548       526.206439542         2.605984083         4.853122631         0.074778683
        37            3.700000         2.248598746       526.548370227         2.604526042         4.853124788         0.074981135
        38            3.800000         2.253247225       527.636892167         2.599877017         4.853124242         0.074570614
        39            3.900000         2.261078120       529.470631907         2.592042847         4.853120967         0.076907644
        40            4.000000         2.272041886       532.037987924         2.581073115         4.853115001         0.074774352
        41            4.100000         2.286045812       535.317249869         2.567060599         4.853106412         0.074988091
        42            4.200000         2.302955061       539.276843463         2.550140235         4.853095296         0.074852454
        43            4.300000         2.322594296       543.875710803         2.530487501         4.853081797         0.075045695
        44            4.400000         2.344749908       549.063831488         2.508316166         4.853066074         0.075179365
        45            4.500000         2.369172688       554.782848579         2.483875642         4.853048330         0.074881912
        46            4.600000         2.395580904       560.966790146         2.457447889         4.853028793         0.075013252
        47            4.700000         2.423663902       567.542910917         2.429343800         4.853007703         0.075893894
        48            4.800000         2.453086072       574.432622013         2.399899266         4.852985339         0.074910632
        49            4.900000         2.483491071       581.552479548         2.369470906         4.852961977         0.075378574
        50            5.000000         2.514506394       588.815254775         2.338431525         4.852937918         0.074897383
        51            5.100000         2.545748127       596.131048083         2.307165344         4.852913471         0.075030095
        52            5.200000         2.576825852       603.408436036         2.276063096         4.852888948         0.074928339
        53            5.300000         2.607347668       610.555648439         2.245516995         4.852864664         0.074951595
        54            5.400000         2.636925259       617.481753939         2.215915665         4.852840924         0.074879265
        55            5.500000         2.665178900       624.097833771         2.187639155         4.852818055         0.074932563
        56            5.600000         2.691742310       630.318116483         2.161054034         4.852796344         0.074940352
        57            5.700000         2.716267393       636.061089803         2.136508671         4.852776064         0.074770696
        58            5.800000         2.738428783       641.250563367         2.114328718         4.852757501         0.074972961
        59            5.900000         2.757928039       645.816652122         2.094812839         4.852740877         0.074521442
        60            6.000000         2.774497510       649.696681104         2.078228900         4.852726410         0.074839406
        61            6.100000         2.787903814       652.835999459         2.064810485         4.852714300         0.073524897
        62            6.200000         2.797950930       655.188705906         2.054753776         4.852704707         0.074202625
        63            6.300000         2.804482815       656.718259910         2.048214939         4.852697754         0.074293992
        64            6.400000         2.807385460       657.397964514         2.045308089         4.852693549         0.074374814
        65            6.500000         2.806588471       657.211335682         2.046103672         4.852692143         0.074810296
        66            6.600000         2.802066065       656.152335895         2.050627500         4.852693565         0.075081895
        67            6.700000         2.793837510       654.225477283         2.058860303         4.852697814         0.074434724
        68            6.800000         2.781967001       651.445791697         2.070737846         4.852704846         0.074419186
        69            6.900000         2.766562984       647.838674295         2.086151599         4.852714584         0.161129785
        70            7.000000         2.747776924       643.439592596         2.104949977         4.852726900         0.074032621
        71            7.100000         2.725801517       638.293670177         2.126940142         4.852741659         0.073768415
        72            7.200000         2.700868405       632.455149973         2.151890292         4.852758697         0.073916875
        73            7.300000         2.673245359       625.986734792         2.179532437         4.852777795         0.074080446
        74            7.400000         2.643233057       618.958834228         2.209565664         4.852798721         0.073957125
        75            7.500000         2.611161474       611.448717028         2.241659767         4.852821241         0.078115836
        76            7.600000         2.577386220       603.539655912         2.275459004         4.852845224         0.073910730
        77            7.700000         2.542300192       595.323654416         2.310580543         4.852880735         0.073955158
        78            7.800000         2.506445743       586.927713779         2.346390698         4.852836441         0.073977534
        79            7.900000         2.470216770       578.444071869         2.382644871         4.852861641         0.074175567
        80            8.000000         2.433873572       569.933681949         2.419013946         4.852887518         0.073811470
        81            8.100000         2.397824800       561.492237357         2.455088424         4.852913225         0.073849713
        82            8.200000         2.362476964       553.214928821         2.490461437         4.852938401         0.074060159
        83            8.300000         2.328228179       545.194982182         2.524734545         4.852962724         0.073669524
        84            8.400000         2.295463183       537.522490360         2.557522720         4.852985902         0.074003627
        85            8.500000         2.264548583       530.283300953         2.588459082         4.853007665         0.074297933
        86            8.600000         2.235828418       523.557976729         2.617199310         4.853027729         0.074026895
        87            8.700000         2.209619946       517.420808681         2.643425925         4.853045871         0.073769107
        88            8.800000         2.186209803       511.938917808         2.666852061         4.853061863         0.073819290
        89            8.900000         2.165850537       507.171442895         2.687224987         4.853075524         0.073714439
        90            9.000000         2.148757540       503.168821301         2.704329147         4.853086687         0.074057475
        91            9.100000         2.135106494       499.972192303         2.717988724         4.853095217         0.073797133
        92            9.200000         2.125031268       497.612903470         2.728069757         4.853101025         0.074084858
        93            9.300000         2.118622361       496.112146841         2.734481670         4.853104031         0.073571648
        94            9.400000         2.115925915       495.480727385         2.737178305         4.853104220         0.073599088
        95            9.500000         2.116943216       495.718945917         2.736158372         4.853101588         0.073946455
        96            9.600000         2.121630788       496.816622193         2.731465394         4.853096182         0.073740559
        97            9.700000         2.129901028       498.753242354         2.723187051         4.853088080         0.074365865
        98            9.800000         2.141623409       501.498240977         2.711453974         4.853077384         0.074282144
        99            9.900000         2.156626244       505.011414692         2.696437995         4.853064239         0.073968560
       100           10.000000         2.174698920       509.243445153         2.678349884         4.853048804         0.074085928
       101           10.100000         2.195594657       514.136544100         2.657436635         4.853031291         0.074303216
       102           10.200000         2.219033643       519.625188871         2.633978280         4.853011923         0.073839137
       103           10.300000         2.244706605       525.636957870         2.608284327         4.852990932         0.074030928
       104           10.400000         2.272278813       532.093468449         2.580689795         4.852968608         0.074030160
       105           10.500000         2.301394287       538.911361378         2.551550924         4.852945212         0.073983350
       106           10.600000         2.331680306       546.003357580         2.521240759         4.852921065         0.074013039
       107           10.700000         2.362752149       553.279368103         2.490144293         4.852896442         0.073783859
       108           10.800000         2.394217950       560.647630779         2.458653713         4.852871662         0.073697875
       109           10.900000         2.425683641       568.015867691         2.427163404         4.852847045         0.073874800
       110           11.000000         2.456757897       575.292443350         2.396065009         4.852822906         0.073990257
       111           11.100000         2.487057017       582.387507586         2.365742510         4.852799528         0.073643385
       112           11.200000         2.516209733       589.214121285         2.336567457         4.852777190         0.073890639
       113           11.300000         2.543861872       595.689348954         2.308894299         4.852756172         0.073593023
       114           11.400000         2.569680724       601.735280533         2.283056034         4.852736758         0.073917316
       115           11.500000         2.593359146       607.279993570         2.259360021         4.852719167         0.073816006
       116           11.600000         2.614619379       612.258445605         2.238084253         4.852703633         0.073854030
       117           11.700000         2.633216414       616.613263563         2.219473894         4.852690308         0.073802752
       118           11.800000         2.648940946       620.295435244         2.203738416         4.852679362         0.074135285
       119           11.900000         2.661621896       623.264899551         2.191049032         4.852670928         0.073575760
       120           12.000000         2.671128412       625.491015080         2.181536679         4.852665091         0.073942473
       121           12.100000         2.677371340       626.952904822         2.175290579         4.852661919         0.073462745
       122           12.200000         2.680304188       627.639681967         2.172357235         4.852661423         0.073902053
       123           12.300000         2.679923506       627.550538662         2.172740106         4.852663612         0.074029094
       124           12.400000         2.676268769       626.694718815         2.176399659         4.852668428         0.074034852
       125           12.500000         2.669421688       625.091355936         2.183254127         4.852675815         0.074300426
       126           12.600000         2.659504890       622.769165943         2.193180747         4.852685637         0.074262373
       127           12.700000         2.646680256       619.766055536         2.206017522         4.852697778         0.074025043
       128           12.800000         2.631146634       616.128588745         2.221565421         4.852712055         0.074126654
       129           12.900000         2.613137042       611.911330625         2.239591225         4.852728267         0.074430306
       130           13.000000         2.592915530       607.176113042         2.259830670         4.852746200         0.074018150
       131           13.100000         2.570773645       601.991207023         2.281991956         4.852765601         0.074135856
       132           13.200000         2.547026482       596.430397226         2.305759742         4.852786225         0.073976803
       133           13.300000         2.522008494       590.572001557         2.330799271         4.852807764         0.073963823
       134           13.400000         2.496069100       584.497842852         2.356760868         4.852829968         0.074240102
       135           13.500000         2.469568024       578.292156587         2.383284482         4.852852505         0.073833908
       136           13.600000         2.442870530       572.040475696         2.410004565         4.852875095         0.073783448
       137           13.700000         2.416342650       565.828512896         2.436554786         4.852897436         0.073889228
       138           13.800000         2.390346337       559.741025462         2.462572898         4.852919234         0.074091197
       139           13.900000         2.365234673       553.860694151         2.487705509         4.852940182         0.073763580
       140           14.000000         2.341347292       548.267049877         2.511612725         4.852960017         0.074136904
       141           14.100000         2.319005926       543.035431752         2.533972554         4.852978480         0.073889509
       142           14.200000         2.298510221       538.236007215         2.554485099         4.852995320         0.074191841
       143           14.300000         2.280133804       533.932850563         2.572876518         4.853010322         0.072664278
       144           14.400000         2.264120700       530.183104770         2.588902581         4.853023281         0.073455949
       145           14.500000         2.250682164       527.036238663         2.602351868         4.853034032         0.074124450
       146           14.600000         2.239993903       524.533397065         2.613048517         4.853042420         0.074161802
       147           14.700000         2.232193832       522.706875240         2.620854513         4.853048344         0.074093274
       148           14.800000         2.227380313       521.579706439         2.625671412         4.853051726         0.074003961
       149           14.900000         2.225610874       521.165361609         2.627441643         4.853052517         0.160655078
       150           15.000000         2.226901485       521.467580415         2.626149230         4.853050714         0.074058640
       151           15.100000         2.231226412       522.480337198         2.621819929         4.853046341         0.073717038
       152           15.200000         2.238518596       524.187928452         2.614520859         4.853039455         0.073907066
       153           15.300000         2.248670571       526.565189314         2.604359579         4.853030150         0.073779101
       154           15.400000         2.261535897       529.577828369         2.591482650         4.853018547         0.073753610
       155           15.500000         2.276931141       533.182891645         2.576073656         4.853004797         0.073814194
       156           15.600000         2.294638347       537.329340891         2.558350739         4.852989087         0.073938842
       157           15.700000         2.314407925       541.958730057         2.538563687         4.852971611         0.073524737
       158           15.800000         2.335961962       547.005981584         2.516990654         4.852952617         0.073837203
       159           15.900000         2.358997863       552.400236934         2.493934498         4.852932361         0.047206935
       160           16.000000         2.383192408       558.065808990         2.469718690         4.852911098         0.039956056
       161           16.100000         2.408206045       563.923185747         2.444683066         4.852889111         0.040174156
       162           16.200000         2.433687382       569.890082379         2.419179312         4.852866694         0.039919607
       163           16.300000         2.459277846       575.882533208         2.393566306         4.852844152         0.039856121
       164           16.400000         2.484616360       581.815985244         2.368205407         4.852821766         0.039974441
       165           16.500000         2.509344197       587.606437027         2.343455640         4.852799837         0.039997611
       166           16.600000         2.533109716       593.171545270         2.319668943         4.852778660         0.039902825
       167           16.700000         2.555572944       598.431699332         2.297185577         4.852758521         0.039949347
       168           16.800000         2.576410117       603.311084622         2.276329553         4.852739670         0.041308933
       169           16.900000         2.595317955       607.738682640         2.257404420         4.852722375         0.073953306
       170           17.000000         2.612017701       611.649217608         2.240689173         4.852706874         0.074169657
       171           17.100000         2.626258871       614.984034428         2.226434495         4.852693367         0.073634045
       172           17.200000         2.637822551       617.691870484         2.214859487         4.852682039         0.073680431
       173           17.300000         2.646524338       619.729544645         2.206148699         4.852673037         0.073493341
       174           17.400000         2.652216843       621.062543490         2.200449648         4.852666492         0.073689749
       175           17.500000         2.654791659       621.665481217         2.197870838         4.852662497         0.073749643
       176           17.600000         2.654180928       621.522467942         2.198480180         4.852661108         0.073781721
       177           17.700000         2.650358323       620.627338722         2.202304039         4.852662362         0.073559828
       178           17.800000         2.643339448       618.983747418         2.209326789         4.852666237         0.073764496
       179           17.900000         2.633181821       616.605162981         2.219490883         4.852672704         0.073733621
       180           18.000000         2.619984271       613.514727868         2.232697416         4.852681687         0.073546309
       181           18.100000         2.603885766       609.744984098         2.248807297         4.852693063         0.073771433
       182           18.200000         2.585063759       605.337484889         2.267642981         4.852706740         0.073731161
       183           18.300000         2.563732044       600.342294051         2.288990485         4.852722529         0.073974352
       184           18.400000         2.540138094       594.817361806         2.312602141         4.852740236         0.073759060
       185           18.500000         2.514560035       588.827815948         2.338199607         4.852759643         0.073869355
       186           18.600000         2.487303192       582.445153570         2.365477331         4.852780522         0.073870700
       187           18.700000         2.458696264       575.746345614         2.394106328         4.852802592         0.073663427
       188           18.800000         2.429087268       568.812886018         2.423738320         4.852825588         0.073753955
       189           18.900000         2.398839120       561.729757872         2.454010115         4.852849235         0.073621047
       190           19.000000         2.368325130       554.584378157         2.484548118         4.852873247         0.073717758
       191           19.100000         2.337924367       547.465512734         2.514972935         4.852897302         0.073941914
       192           19.200000         2.308016848       540.462148634         2.544904266         4.852921114         0.073670993
       193           19.300000         2.278978734       533.662371030         2.573965659         4.852944393         0.073456583
       194           19.400000         2.251177658       527.152267186         2.601789173         4.852966831         0.073757051
       195           19.500000         2.224968094       521.014843406         2.628020067         4.852988160         0.075796161
       196           19.600000         2.200686892       515.328979248         2.652321216         4.853008108         0.052453155
       197           19.700000         2.178649026       510.168430929         2.674377401         4.853026427         0.039934005
       198           19.800000         2.159143603       505.600898145         2.693899282         4.853042885         0.039739552
       199           19.900000         2.142430187       501.687162064         2.710627090         4.853057277         0.039938563
       200           20.000000         2.128735527       498.480319894         2.724333894         4.853069420         0.039975161
