 DBCSR| Multiplication driver                                               XSMM
 DBCSR| Multrec recursion limit                                              512
 DBCSR| Multiplication stack size                                           1000
 DBCSR| Maximum elements for images                                    UNLIMITED
 DBCSR| Randmat seed                                                    12341313
 DBCSR| Multiplication size stacks                                             3


  **** **** ******  **  PROGRAM STARTED AT               2021-04-29 14:23:29.708
 ***** ** ***  *** **   PROGRAM STARTED ON               bulstake.phys.ucl.ac.uk
 **    ****   ******    PROGRAM STARTED BY                             sgiannini
 ***** **    ** ** **   PROGRAM PROCESS ID                                 12998
  **** **  *******  **  PROGRAM STARTED IN /scratch/sgiannini/REG_TEST_MERGING/3
                                           7-071a0540f1_code_extension_V3_ADJ/ru
                                           n-fssh-MTS1_NFF_FROZEN_C_FIRST_OFF_RE
                                           SCALING

 CP2K| version string:                    CP2K version 4.0 (Development Version)
 CP2K| source code revision number:                                  git:1080fc1
 CP2K| cp2kflags: libint fftw3 libxc quip smm_dnn smm libxsmm libderiv_max_am1=5
 CP2K|             libint_max_am=6
 CP2K| is freely available from                            https://www.cp2k.org/
 CP2K| Program compiled at                          Thu 29 Apr 10:11:08 BST 2021
 CP2K| Program compiled on                               bulstake.phys.ucl.ac.uk
 CP2K| Program compiled for                                         local_hetero
 CP2K| Data directory path           /scratch/sgiannini/flavoured-cptk/cp2k/data
 CP2K| Input file name                                                   run.inp

 GLOBAL| Force Environment number                                              1
 GLOBAL| Basis set file name                                           POTENTIAL
 GLOBAL| MM Potential file name                                     MM_POTENTIAL
 GLOBAL| Coordinate file name                                       pos-init.xyz
 GLOBAL| Force Environment number                                              2
 GLOBAL| Basis set file name                                           POTENTIAL
 GLOBAL| MM Potential file name                                     MM_POTENTIAL
 GLOBAL| Coordinate file name                                       pos-init.xyz
 GLOBAL| Force Environment number                                              3
 GLOBAL| Basis set file name                                           POTENTIAL
 GLOBAL| MM Potential file name                                     MM_POTENTIAL
 GLOBAL| Coordinate file name                                       pos-init.xyz
 GLOBAL| Force Environment number                                              4
 GLOBAL| Basis set file name                                           POTENTIAL
 GLOBAL| MM Potential file name                                     MM_POTENTIAL
 GLOBAL| Coordinate file name                                       pos-init.xyz
 GLOBAL| Force Environment number                                              5
 GLOBAL| Basis set file name                                           POTENTIAL
 GLOBAL| MM Potential file name                                     MM_POTENTIAL
 GLOBAL| Coordinate file name                                       pos-init.xyz
 GLOBAL| Force Environment number                                              6
 GLOBAL| Basis set file name                                           POTENTIAL
 GLOBAL| MM Potential file name                                     MM_POTENTIAL
 GLOBAL| Coordinate file name                                       pos-init.xyz
 GLOBAL| Force Environment number                                              7
 GLOBAL| Basis set file name                                           POTENTIAL
 GLOBAL| MM Potential file name                                     MM_POTENTIAL
 GLOBAL| Coordinate file name                                       pos-init.xyz
 GLOBAL| Force Environment number                                              8
 GLOBAL| Basis set file name                                           POTENTIAL
 GLOBAL| MM Potential file name                                     MM_POTENTIAL
 GLOBAL| Coordinate file name                                       pos-init.xyz
 GLOBAL| Force Environment number                                              9
 GLOBAL| Basis set file name                                           POTENTIAL
 GLOBAL| MM Potential file name                                     MM_POTENTIAL
 GLOBAL| Coordinate file name                                       pos-init.xyz
 GLOBAL| Force Environment number                                             10
 GLOBAL| Basis set file name                                           POTENTIAL
 GLOBAL| MM Potential file name                                     MM_POTENTIAL
 GLOBAL| Coordinate file name                                       pos-init.xyz
 GLOBAL| Method name                                                        CP2K
 GLOBAL| Project name                                                        run
 GLOBAL| Preferred FFT library                                             FFTW3
 GLOBAL| Preferred diagonalization lib.                                       SL
 GLOBAL| Run type                                                             MD
 GLOBAL| All-to-all communication in single precision                          F
 GLOBAL| FFTs using library dependent lengths                                  F
 GLOBAL| Global print level                                                  LOW
 GLOBAL| Total number of message passing processes                             1
 GLOBAL| Number of threads for this process                                    1
 GLOBAL| This output is from process                                           0
 GLOBAL| CPU model name :  Intel(R) Xeon(R) CPU E5-2687W v4 @ 3.00GHz

 MEMORY| system memory details [Kb]
 MEMORY|                        rank 0           min           max       average
 MEMORY| MemTotal             65894336      65894336      65894336      65894336
 MEMORY| MemFree               6730916       6730916       6730916       6730916
 MEMORY| Buffers                  8744          8744          8744          8744
 MEMORY| Cached               40779424      40779424      40779424      40779424
 MEMORY| Slab                  3236724       3236724       3236724       3236724
 MEMORY| SReclaimable          2479316       2479316       2479316       2479316
 MEMORY| MemLikelyFree        49998400      49998400      49998400      49998400

 TOTAL NUMBER OF FORCE EVALS          10
 NOTE:n_subforce_eval           9
 DECOMP =  F
 DECOMP =  F
 DECOMP =  F
 DECOMP =  F
 DECOMP =  F
 DECOMP =  F
 DECOMP =  F
 DECOMP =  F
 DECOMP =  F

 MD| Molecular Dynamics Protocol 
 MD| Ensemble Type                                                           NVE
 MD| Number of Time Steps                                                    300
 MD| Time Step [fs]                                                         0.10
 MD| Temperature [K]                                                      400.00
 MD| Temperature tolerance [K]                                              0.00
 MD| Print MD information every                                        1 step(s)
 MD| File type     Print frequency[steps]                             File names
 MD| Coordinates          200                                      run-pos-1.xyz
 MD| Velocities             1                                      run-vel-1.xyz
 MD| Energies               1                                         run-1.ener
 MD| Dump                 200                                      run-1.restart

 ROT| Rotational Analysis Info 
 ROT| Principal axes and moments of inertia in atomic units:
 ROT|                                1                 2                 3
 ROT| EIGENVALUES            0.319196005E+10   0.583971964E+10   0.882037602E+10
 ROT|      X                     0.997631408       0.066105605       0.019016393
 ROT|      Y                     0.066118536      -0.997811774      -0.000051363
 ROT|      Z                    -0.018971385      -0.001308578       0.999819171
 ROT| Numer of Rotovibrational vectors:     6

 Calculation of degrees of freedom
                                                      Number of atoms:       900
                                 Number of Intramolecular constraints:         0
                                 Number of Intermolecular constraints:         0
                                  Invariants(translation + rotations):         3
                                                   Degrees of freedom:      2697


 Restraints Information
                                  Number of Intramolecular restraints:         0
                                  Number of Intermolecular restraints:         0

 *** WARNING in motion/thermostat/thermostat_methods.F:280 :: Thermostat ***
 *** for Particles has been defined but the ensemble provided does not   ***
 *** support thermostat for Particles! Ignoring thermostat input.        ***

 ************************** Velocities initialization **************************
 Initial Temperature                                                    564.84 K
 COM velocity:           -0.000000000004     -0.000000000000      0.000000000001
 *******************************************************************************

 FIRST CALL: force_env_calc_energy_force
 RESTART_KEY F
 ACTIVE STATE           3
 FOBSH| ACTIVE STATE =            3

 ENERGY| Total FORCE_EVAL ( MIXED ) energy (a.u.):             2.446981654967434

 STEP NUMBER                  =            0
 CPU TIME [s]                 =    0.0000000000000000        0.0000000000000000     

 MD_ENERGIES| Initialization proceeding


 ******************************** GO CP2K GO! **********************************
 INITIAL POTENTIAL ENERGY[hartree]     =                      0.244698165497E+01
 INITIAL KINETIC ENERGY[hartree]       =                      0.241212372912E+01
 INITIAL TEMPERATURE[K]                =                                 564.841
 INITIAL VOLUME[bohr^3]                =                      0.580604601118E+05
 INITIAL CELL LNTHS[bohr]   =      0.7651501E+02   0.5624770E+02   0.1634991E+02
 INITIAL CELL ANGLS[deg]    =      0.9000000E+02   0.1244000E+03   0.9000000E+02
 ******************************** GO CP2K GO! **********************************
 FOBSH| New map:            1           2           0           0           5           6           7           8
 FOBSH! New map again:           1           2           0           0           5           6           7           8
 FOBSH| Put former active state           3 in new active state           3
 FOBSH| *** WARNING: difference between exact flux and sum of Tully's proba is   2.4918102643691133      ***
 RANDOM_NUMBER_HOPPING_PROBA  0.52706805747704488     
 FOBSH| ATTEMPTED_HOP
 FOBSH| ACTIVE STATE =            3

 ENERGY| Total FORCE_EVAL ( MIXED ) energy (a.u.):             2.418359458280365

 FOBSH| Active state before the attempt to hop:           3

 ENERGY| Total FORCE_EVAL ( MIXED ) energy (a.u.):             2.418407460049028

 FOBSH| Active state after the attempt to hop:           4
 FOBSH| Possible trivial crossing
 FOBSH| CASE5: successful hop and maybe a crossing, final overlap is :  0.46010487901263208     
 FOBSH| We were localized on molecule           1
 FOBSH| And now on molecule           1
 ENTER integrator.F
 STEP NUMBER                  =            1
 CPU TIME [s]                 =   0.42825516685843468       0.42825516685843468     

 *******************************************************************************
 ENSEMBLE TYPE                =                                              NVE
 STEP NUMBER                  =                                                1
 TIME [fs]                    =                                         0.100000
 CONSERVED QUANTITY [hartree] =                               0.485908240475E+01

                                              INSTANTANEOUS             AVERAGES
 CPU TIME [s]                 =                        0.43                 0.43
 ENERGY DRIFT PER ATOM [K]    =         -0.806254754154E-02   0.000000000000E+00
 POTENTIAL ENERGY[hartree]    =          0.241840746005E+01   0.241840746005E+01
 KINETIC ENERGY [hartree]     =          0.244067494470E+01   0.244067494470E+01
 TEMPERATURE [K]              =                     571.526              571.526
 *******************************************************************************

 FOBSH| Put former active state           4 in new active state           4
 RANDOM_NUMBER_HOPPING_PROBA  0.66567659016249958     
 FOBSH| ACTIVE STATE =            4

 ENERGY| Total FORCE_EVAL ( MIXED ) energy (a.u.):             2.391186473516530

 FOBSH| CASE1: no hop and no trivial crossing
 ENTER integrator.F
 STEP NUMBER                  =            2
 CPU TIME [s]                 =    7.5621999800205231E-002  0.25193858332931995     

 *******************************************************************************
 ENSEMBLE TYPE                =                                              NVE
 STEP NUMBER                  =                                                2
 TIME [fs]                    =                                         0.200000
 CONSERVED QUANTITY [hartree] =                               0.485906271264E+01

                                              INSTANTANEOUS             AVERAGES
 CPU TIME [s]                 =                        0.08                 0.25
 ENERGY DRIFT PER ATOM [K]    =         -0.149717369217E-01  -0.748586846087E-02
 POTENTIAL ENERGY[hartree]    =          0.239118647352E+01   0.240479696678E+01
 KINETIC ENERGY [hartree]     =          0.246787623912E+01   0.245427559191E+01
 TEMPERATURE [K]              =                     577.896              574.711
 *******************************************************************************

 FOBSH| Put former active state           4 in new active state           4
 RANDOM_NUMBER_HOPPING_PROBA  0.62850201519402193     
 FOBSH| ACTIVE STATE =            4

 ENERGY| Total FORCE_EVAL ( MIXED ) energy (a.u.):             2.365672135004492

 FOBSH| CASE1: no hop and no trivial crossing
 ENTER integrator.F
 STEP NUMBER                  =            3
 CPU TIME [s]                 =    6.2362408265471458E-002  0.18874652497470379     

 *******************************************************************************
 ENSEMBLE TYPE                =                                              NVE
 STEP NUMBER                  =                                                3
 TIME [fs]                    =                                         0.300000
 CONSERVED QUANTITY [hartree] =                               0.485904360990E+01

                                              INSTANTANEOUS             AVERAGES
 CPU TIME [s]                 =                        0.06                 0.19
 ENERGY DRIFT PER ATOM [K]    =         -0.216741358252E-01  -0.122152909156E-01
 POTENTIAL ENERGY[hartree]    =          0.236567213500E+01   0.239175535619E+01
 KINETIC ENERGY [hartree]     =          0.249337147490E+01   0.246730755291E+01
 TEMPERATURE [K]              =                     583.866              577.763
 *******************************************************************************

 FOBSH| Put former active state           4 in new active state           4
 RANDOM_NUMBER_HOPPING_PROBA  0.19697258807027210     
 FOBSH| ACTIVE STATE =            4

 ENERGY| Total FORCE_EVAL ( MIXED ) energy (a.u.):             2.342167335698875

 FOBSH| CASE1: no hop and no trivial crossing
 ENTER integrator.F
 STEP NUMBER                  =            4
 CPU TIME [s]                 =    7.5893815606832504E-002  0.16053334763273597     

 *******************************************************************************
 ENSEMBLE TYPE                =                                              NVE
 STEP NUMBER                  =                                                4
 TIME [fs]                    =                                         0.400000
 CONSERVED QUANTITY [hartree] =                               0.485902626207E+01

                                              INSTANTANEOUS             AVERAGES
 CPU TIME [s]                 =                        0.08                 0.16
 ENERGY DRIFT PER ATOM [K]    =         -0.277608108865E-01  -0.161016709084E-01
 POTENTIAL ENERGY[hartree]    =          0.234216733570E+01   0.237935835107E+01
 KINETIC ENERGY [hartree]     =          0.251685892637E+01   0.247969539627E+01
 TEMPERATURE [K]              =                     589.366              580.664
 *******************************************************************************

 FOBSH| Put former active state           4 in new active state           4
 RANDOM_NUMBER_HOPPING_PROBA  0.62364035814935215     
 FOBSH| ACTIVE STATE =            4

 ENERGY| Total FORCE_EVAL ( MIXED ) energy (a.u.):             2.320947252002436

 FOBSH| CASE1: no hop and no trivial crossing
 ENTER integrator.F
 STEP NUMBER                  =            5
 CPU TIME [s]                 =    7.5203344225883484E-002  0.14346734695136548     

 *******************************************************************************
 ENSEMBLE TYPE                =                                              NVE
 STEP NUMBER                  =                                                5
 TIME [fs]                    =                                         0.500000
 CONSERVED QUANTITY [hartree] =                               0.485901095701E+01

                                              INSTANTANEOUS             AVERAGES
 CPU TIME [s]                 =                        0.08                 0.14
 ENERGY DRIFT PER ATOM [K]    =         -0.331307540438E-01  -0.195074875354E-01
 POTENTIAL ENERGY[hartree]    =          0.232094725200E+01   0.236767613125E+01
 KINETIC ENERGY [hartree]     =          0.253806370501E+01   0.249136905802E+01
 TEMPERATURE [K]              =                     594.332              583.397
 *******************************************************************************

 FOBSH| Put former active state           4 in new active state           4
 RANDOM_NUMBER_HOPPING_PROBA  0.71780466621354477     
 FOBSH| ACTIVE STATE =            4

 ENERGY| Total FORCE_EVAL ( MIXED ) energy (a.u.):             2.302254302676837

 FOBSH| CASE1: no hop and no trivial crossing
 ENTER integrator.F
 STEP NUMBER                  =            6
 CPU TIME [s]                 =    7.7268823981285095E-002  0.13243425978968540     

 *******************************************************************************
 ENSEMBLE TYPE                =                                              NVE
 STEP NUMBER                  =                                                6
 TIME [fs]                    =                                         0.600000
 CONSERVED QUANTITY [hartree] =                               0.485899788573E+01

                                              INSTANTANEOUS             AVERAGES
 CPU TIME [s]                 =                        0.08                 0.13
 ENERGY DRIFT PER ATOM [K]    =         -0.377169538831E-01  -0.225423985934E-01
 POTENTIAL ENERGY[hartree]    =          0.230225430268E+01   0.235677249316E+01
 KINETIC ENERGY [hartree]     =          0.255674358305E+01   0.250226481219E+01
 TEMPERATURE [K]              =                     598.706              585.949
 *******************************************************************************

 FOBSH| Put former active state           4 in new active state           4
 RANDOM_NUMBER_HOPPING_PROBA  0.16418834476526262     
 FOBSH| ACTIVE STATE =            4

 ENERGY| Total FORCE_EVAL ( MIXED ) energy (a.u.):             2.286294924162923

 FOBSH| CASE1: no hop and no trivial crossing
 ENTER integrator.F
 STEP NUMBER                  =            7
 CPU TIME [s]                 =    6.4312253147363663E-002  0.12270254455506802     

 *******************************************************************************
 ENSEMBLE TYPE                =                                              NVE
 STEP NUMBER                  =                                                7
 TIME [fs]                    =                                         0.700000
 CONSERVED QUANTITY [hartree] =                               0.485898723482E+01

                                              INSTANTANEOUS             AVERAGES
 CPU TIME [s]                 =                        0.06                 0.12
 ENERGY DRIFT PER ATOM [K]    =         -0.414539373247E-01  -0.252440469836E-01
 POTENTIAL ENERGY[hartree]    =          0.228629492416E+01   0.234670426902E+01
 KINETIC ENERGY [hartree]     =          0.257269231066E+01   0.251232588340E+01
 TEMPERATURE [K]              =                     602.440              588.305
 *******************************************************************************

 FOBSH| Put former active state           4 in new active state           4
 RANDOM_NUMBER_HOPPING_PROBA  0.13146703861307912     
 FOBSH| ACTIVE STATE =            4

 ENERGY| Total FORCE_EVAL ( MIXED ) energy (a.u.):             2.273236868894207

 FOBSH| CASE1: no hop and no trivial crossing
 ENTER integrator.F
 STEP NUMBER                  =            8
 CPU TIME [s]                 =    3.6617698147892952E-002  0.11194193875417113     

 *******************************************************************************
 ENSEMBLE TYPE                =                                              NVE
 STEP NUMBER                  =                                                8
 TIME [fs]                    =                                         0.800000
 CONSERVED QUANTITY [hartree] =                               0.485897911946E+01

                                              INSTANTANEOUS             AVERAGES
 CPU TIME [s]                 =                        0.04                 0.11
 ENERGY DRIFT PER ATOM [K]    =         -0.443013003129E-01  -0.276262036498E-01
 POTENTIAL ENERGY[hartree]    =          0.227323686889E+01   0.233752084400E+01
 KINETIC ENERGY [hartree]     =          0.258574225056E+01   0.252150292930E+01
 TEMPERATURE [K]              =                     605.496              590.454
 *******************************************************************************

 FOBSH| Put former active state           4 in new active state           4
 RANDOM_NUMBER_HOPPING_PROBA  0.51288349360222152     
 FOBSH| ACTIVE STATE =            4

 ENERGY| Total FORCE_EVAL ( MIXED ) energy (a.u.):             2.263207166290814

 FOBSH| CASE1: no hop and no trivial crossing
 ENTER integrator.F
 STEP NUMBER                  =            9
 CPU TIME [s]                 =    3.6285759881138802E-002  0.10353569665716754     

 *******************************************************************************
 ENSEMBLE TYPE                =                                              NVE
 STEP NUMBER                  =                                                9
 TIME [fs]                    =                                         0.900000
 CONSERVED QUANTITY [hartree] =                               0.485897365000E+01

                                              INSTANTANEOUS             AVERAGES
 CPU TIME [s]                 =                        0.04                 0.10
 ENERGY DRIFT PER ATOM [K]    =         -0.462203169066E-01  -0.296922162338E-01
 POTENTIAL ENERGY[hartree]    =          0.226320716629E+01   0.232926376870E+01
 KINETIC ENERGY [hartree]     =          0.259576648371E+01   0.252975443534E+01
 TEMPERATURE [K]              =                     607.844              592.386
 *******************************************************************************

 FOBSH| Put former active state           4 in new active state           4
 RANDOM_NUMBER_HOPPING_PROBA  0.31200530121501135     
 FOBSH| ACTIVE STATE =            4

 ENERGY| Total FORCE_EVAL ( MIXED ) energy (a.u.):             2.256290521226304

 FOBSH| CASE1: no hop and no trivial crossing
 ENTER integrator.F
 STEP NUMBER                  =           10
 CPU TIME [s]                 =    3.6828944459557533E-002   9.6865021437406551E-002

 *******************************************************************************
 ENSEMBLE TYPE                =                                              NVE
 STEP NUMBER                  =                                               10
 TIME [fs]                    =                                         1.000000
 CONSERVED QUANTITY [hartree] =                               0.485897087895E+01

                                              INSTANTANEOUS             AVERAGES
 CPU TIME [s]                 =                        0.04                 0.10
 ENERGY DRIFT PER ATOM [K]    =         -0.471925709617E-01  -0.314422517066E-01
 POTENTIAL ENERGY[hartree]    =          0.225629052123E+01   0.232196644395E+01
 KINETIC ENERGY [hartree]     =          0.260268035772E+01   0.253704702758E+01
 TEMPERATURE [K]              =                     609.463              594.094
 *******************************************************************************

 FOBSH| Put former active state           4 in new active state           4
 RANDOM_NUMBER_HOPPING_PROBA  0.33142058177280265     
 FOBSH| ACTIVE STATE =            4

 ENERGY| Total FORCE_EVAL ( MIXED ) energy (a.u.):             2.252528359617339

 FOBSH| CASE1: no hop and no trivial crossing
 ENTER integrator.F
 STEP NUMBER                  =           11
 CPU TIME [s]                 =    3.6830242723226547E-002   9.1407314281571991E-002

 *******************************************************************************
 ENSEMBLE TYPE                =                                              NVE
 STEP NUMBER                  =                                               11
 TIME [fs]                    =                                         1.100000
 CONSERVED QUANTITY [hartree] =                               0.485897084418E+01

                                              INSTANTANEOUS             AVERAGES
 CPU TIME [s]                 =                        0.04                 0.09
 ENERGY DRIFT PER ATOM [K]    =         -0.472047710818E-01  -0.328752080135E-01
 POTENTIAL ENERGY[hartree]    =          0.225252835962E+01   0.231565389083E+01
 KINETIC ENERGY [hartree]     =          0.260644248456E+01   0.254335570549E+01
 TEMPERATURE [K]              =                     610.344              595.571
 *******************************************************************************

 FOBSH| Put former active state           4 in new active state           4
 RANDOM_NUMBER_HOPPING_PROBA  0.27413217002048423     
 FOBSH| ACTIVE STATE =            4

 ENERGY| Total FORCE_EVAL ( MIXED ) energy (a.u.):             2.251918361106631

 FOBSH| CASE1: no hop and no trivial crossing
 ENTER integrator.F
 STEP NUMBER                  =           12
 CPU TIME [s]                 =    3.7053221836686134E-002   8.6877806577831507E-002

 *******************************************************************************
 ENSEMBLE TYPE                =                                              NVE
 STEP NUMBER                  =                                               12
 TIME [fs]                    =                                         1.200000
 CONSERVED QUANTITY [hartree] =                               0.485897351179E+01

                                              INSTANTANEOUS             AVERAGES
 CPU TIME [s]                 =                        0.04                 0.09
 ENERGY DRIFT PER ATOM [K]    =         -0.462688118672E-01  -0.339913416679E-01
 POTENTIAL ENERGY[hartree]    =          0.225191836111E+01   0.231034259669E+01
 KINETIC ENERGY [hartree]     =          0.260705515068E+01   0.254866399259E+01
 TEMPERATURE [K]              =                     610.487              596.814
 *******************************************************************************

 FOBSH| Put former active state           4 in new active state           4
 RANDOM_NUMBER_HOPPING_PROBA  0.87583701013915671     
 FOBSH| ACTIVE STATE =            4

 ENERGY| Total FORCE_EVAL ( MIXED ) energy (a.u.):             2.254414745516612

 FOBSH| CASE1: no hop and no trivial crossing
 ENTER integrator.F
 STEP NUMBER                  =           13
 CPU TIME [s]                 =    3.8205208256840706E-002   8.3133760553139910E-002

 *******************************************************************************
 ENSEMBLE TYPE                =                                              NVE
 STEP NUMBER                  =                                               13
 TIME [fs]                    =                                         1.300000
 CONSERVED QUANTITY [hartree] =                               0.485897885408E+01

                                              INSTANTANEOUS             AVERAGES
 CPU TIME [s]                 =                        0.04                 0.08
 ENERGY DRIFT PER ATOM [K]    =         -0.443944123910E-01  -0.347915778774E-01
 POTENTIAL ENERGY[hartree]    =          0.225441474552E+01   0.230604045429E+01
 KINETIC ENERGY [hartree]     =          0.260456410856E+01   0.255296400151E+01
 TEMPERATURE [K]              =                     609.904              597.821
 *******************************************************************************

 FOBSH| Put former active state           4 in new active state           4
 RANDOM_NUMBER_HOPPING_PROBA  0.53722623939231462     
 FOBSH| ACTIVE STATE =            4

 ENERGY| Total FORCE_EVAL ( MIXED ) energy (a.u.):             2.259928931289642

 FOBSH| CASE1: no hop and no trivial crossing
 ENTER integrator.F
 STEP NUMBER                  =           14
 CPU TIME [s]                 =    3.6745989695191383E-002   7.9820348349000717E-002

 *******************************************************************************
 ENSEMBLE TYPE                =                                              NVE
 STEP NUMBER                  =                                               14
 TIME [fs]                    =                                         1.400000
 CONSERVED QUANTITY [hartree] =                               0.485898678292E+01

                                              INSTANTANEOUS             AVERAGES
 CPU TIME [s]                 =                        0.04                 0.08
 ENERGY DRIFT PER ATOM [K]    =         -0.416124917643E-01  -0.352787860122E-01
 POTENTIAL ENERGY[hartree]    =          0.225992893129E+01   0.230274677408E+01
 KINETIC ENERGY [hartree]     =          0.259905785163E+01   0.255625641937E+01
 TEMPERATURE [K]              =                     608.614              598.592
 *******************************************************************************

 FOBSH| Put former active state           4 in new active state           4
 RANDOM_NUMBER_HOPPING_PROBA  0.51392675957101541     
 FOBSH| ACTIVE STATE =            4

 ENERGY| Total FORCE_EVAL ( MIXED ) energy (a.u.):             2.268330844332252

 FOBSH| CASE1: no hop and no trivial crossing
 ENTER integrator.F
 STEP NUMBER                  =           15
 CPU TIME [s]                 =    3.7603357806801796E-002   7.7005882312854115E-002

 *******************************************************************************
 ENSEMBLE TYPE                =                                              NVE
 STEP NUMBER                  =                                               15
 TIME [fs]                    =                                         1.500000
 CONSERVED QUANTITY [hartree] =                               0.485899719603E+01

                                              INSTANTANEOUS             AVERAGES
 CPU TIME [s]                 =                        0.04                 0.08
 ENERGY DRIFT PER ATOM [K]    =         -0.379589428654E-01  -0.354574631357E-01
 POTENTIAL ENERGY[hartree]    =          0.226833084433E+01   0.230045237876E+01
 KINETIC ENERGY [hartree]     =          0.259066635169E+01   0.255855041486E+01
 TEMPERATURE [K]              =                     606.649              599.129
 *******************************************************************************

 FOBSH| Put former active state           4 in new active state           4
 RANDOM_NUMBER_HOPPING_PROBA  0.46440041474888250     
 FOBSH| ACTIVE STATE =            4

 ENERGY| Total FORCE_EVAL ( MIXED ) energy (a.u.):             2.279450697445265

 FOBSH| CASE1: no hop and no trivial crossing
 ENTER integrator.F
 STEP NUMBER                  =           16
 CPU TIME [s]                 =    7.4830383062362671E-002   7.6869913609698401E-002

 *******************************************************************************
 ENSEMBLE TYPE                =                                              NVE
 STEP NUMBER                  =                                               16
 TIME [fs]                    =                                         1.600000
 CONSERVED QUANTITY [hartree] =                               0.485900992959E+01

                                              INSTANTANEOUS             AVERAGES
 CPU TIME [s]                 =                        0.07                 0.08
 ENERGY DRIFT PER ATOM [K]    =         -0.334912340501E-01  -0.353345738179E-01
 POTENTIAL ENERGY[hartree]    =          0.227945069745E+01   0.229913977368E+01
 KINETIC ENERGY [hartree]     =          0.257955923215E+01   0.255986346594E+01
 TEMPERATURE [K]              =                     604.049              599.436
 *******************************************************************************

 FOBSH| Put former active state           4 in new active state           4
 RANDOM_NUMBER_HOPPING_PROBA  0.33981241161957892     
 FOBSH| ACTIVE STATE =            4

 ENERGY| Total FORCE_EVAL ( MIXED ) energy (a.u.):             2.293081467842156

 FOBSH| CASE1: no hop and no trivial crossing
 ENTER integrator.F
 STEP NUMBER                  =           17
 CPU TIME [s]                 =    7.5788984075188637E-002   7.6806329519433114E-002

 *******************************************************************************
 ENSEMBLE TYPE                =                                              NVE
 STEP NUMBER                  =                                               17
 TIME [fs]                    =                                         1.700000
 CONSERVED QUANTITY [hartree] =                               0.485902480904E+01

                                              INSTANTANEOUS             AVERAGES
 CPU TIME [s]                 =                        0.08                 0.08
 ENERGY DRIFT PER ATOM [K]    =         -0.282706214342E-01  -0.349190472071E-01
 POTENTIAL ENERGY[hartree]    =          0.229308146784E+01   0.229878340275E+01
 KINETIC ENERGY [hartree]     =          0.256594334120E+01   0.256022110566E+01
 TEMPERATURE [K]              =                     600.860              599.520
 *******************************************************************************

 FOBSH| Put former active state           4 in new active state           4
 RANDOM_NUMBER_HOPPING_PROBA  0.68305462949801310     
 FOBSH| ACTIVE STATE =            4

 ENERGY| Total FORCE_EVAL ( MIXED ) energy (a.u.):             2.308981749010699

 FOBSH| CASE1: no hop and no trivial crossing
 ENTER integrator.F
 STEP NUMBER                  =           18
 CPU TIME [s]                 =    6.2996236607432365E-002   7.6039102135433065E-002

 *******************************************************************************
 ENSEMBLE TYPE                =                                              NVE
 STEP NUMBER                  =                                               18
 TIME [fs]                    =                                         1.800000
 CONSERVED QUANTITY [hartree] =                               0.485904163009E+01

                                              INSTANTANEOUS             AVERAGES
 CPU TIME [s]                 =                        0.06                 0.08
 ENERGY DRIFT PER ATOM [K]    =         -0.223687757066E-01  -0.342218099015E-01
 POTENTIAL ENERGY[hartree]    =          0.230898174901E+01   0.229934997754E+01
 KINETIC ENERGY [hartree]     =          0.255005988108E+01   0.255965659319E+01
 TEMPERATURE [K]              =                     597.141              599.388
 *******************************************************************************

 FOBSH! Reorgering: for state           7  we stay in with overlap -0.68658371380492200       instead of goind to            8 with overlap  0.72695172554006637     
 FOBSH! Reorgering: for state           8  we stay in with overlap -0.68652255635631909       instead of goind to            7 with overlap -0.72703236025725027     
 FOBSH| New map:            1           2           3           4           5           6           0           0
 FOBSH! New map again:           1           2           3           4           5           6           0           0
 FOBSH| Put former active state           4 in new active state           4
 RANDOM_NUMBER_HOPPING_PROBA  0.89266899010984935     
 FOBSH| ACTIVE STATE =            4

 ENERGY| Total FORCE_EVAL ( MIXED ) energy (a.u.):             2.326879034065956

 FOBSH| CASE1: no hop and no trivial crossing
 ENTER integrator.F
 STEP NUMBER                  =           19
 CPU TIME [s]                 =    6.3232813030481339E-002   7.5365086919382970E-002

 *******************************************************************************
 ENSEMBLE TYPE                =                                              NVE
 STEP NUMBER                  =                                               19
 TIME [fs]                    =                                         1.900000
 CONSERVED QUANTITY [hartree] =                               0.485906016674E+01

                                              INSTANTANEOUS             AVERAGES
 CPU TIME [s]                 =                        0.06                 0.08
 ENERGY DRIFT PER ATOM [K]    =         -0.158649938777E-01  -0.332556616897E-01
 POTENTIAL ENERGY[hartree]    =          0.232687903407E+01   0.230079887525E+01
 KINETIC ENERGY [hartree]     =          0.253218113267E+01   0.255821051632E+01
 TEMPERATURE [K]              =                     592.954              599.049
 *******************************************************************************

 FOBSH| New map:            1           2           3           4           5           6           0           0
 FOBSH! New map again:           1           2           3           4           5           6           0           0
 FOBSH| Put former active state           4 in new active state           4
 RANDOM_NUMBER_HOPPING_PROBA  0.37393966498306264     
 FOBSH| ACTIVE STATE =            4

 ENERGY| Total FORCE_EVAL ( MIXED ) energy (a.u.):             2.346473389642796

 FOBSH| CASE1: no hop and no trivial crossing
 ENTER integrator.F
 STEP NUMBER                  =           20
 CPU TIME [s]                 =    3.7436775863170624E-002   7.3468671366572355E-002

 *******************************************************************************
 ENSEMBLE TYPE                =                                              NVE
 STEP NUMBER                  =                                               20
 TIME [fs]                    =                                         2.000000
 CONSERVED QUANTITY [hartree] =                               0.485908015294E+01

                                              INSTANTANEOUS             AVERAGES
 CPU TIME [s]                 =                        0.04                 0.07
 ENERGY DRIFT PER ATOM [K]    =         -0.885261930327E-02  -0.320355095704E-01
 POTENTIAL ENERGY[hartree]    =          0.234647338964E+01   0.230308260097E+01
 KINETIC ENERGY [hartree]     =          0.251260676330E+01   0.255593032867E+01
 TEMPERATURE [K]              =                     588.370              598.515
 *******************************************************************************

 FOBSH| Put former active state           4 in new active state           4
 RANDOM_NUMBER_HOPPING_PROBA  0.29483768654201153     
 FOBSH| ACTIVE STATE =            4

 ENERGY| Total FORCE_EVAL ( MIXED ) energy (a.u.):             2.367441603145664

 FOBSH| CASE1: no hop and no trivial crossing
 ENTER integrator.F
 STEP NUMBER                  =           21
 CPU TIME [s]                 =    6.3006298616528511E-002   7.2970463140379790E-002

 *******************************************************************************
 ENSEMBLE TYPE                =                                              NVE
 STEP NUMBER                  =                                               21
 TIME [fs]                    =                                         2.100000
 CONSERVED QUANTITY [hartree] =                               0.485910131710E+01

                                              INSTANTANEOUS             AVERAGES
 CPU TIME [s]                 =                        0.06                 0.07
 ENERGY DRIFT PER ATOM [K]    =         -0.142694864279E-02  -0.305779590500E-01
 POTENTIAL ENERGY[hartree]    =          0.236744160315E+01   0.230614731536E+01
 KINETIC ENERGY [hartree]     =          0.249165971395E+01   0.255286982320E+01
 TEMPERATURE [K]              =                     583.465              597.799
 *******************************************************************************

 FOBSH| Put former active state           4 in new active state           4
 RANDOM_NUMBER_HOPPING_PROBA  0.16126713006374499     
 FOBSH| ACTIVE STATE =            4

 ENERGY| Total FORCE_EVAL ( MIXED ) energy (a.u.):             2.389441589879702

 FOBSH| CASE1: no hop and no trivial crossing
 ENTER integrator.F
 STEP NUMBER                  =           22
 CPU TIME [s]                 =    7.5410487130284309E-002   7.3081373321739099E-002

 *******************************************************************************
 ENSEMBLE TYPE                =                                              NVE
 STEP NUMBER                  =                                               22
 TIME [fs]                    =                                         2.200000
 CONSERVED QUANTITY [hartree] =                               0.485912337097E+01

                                              INSTANTANEOUS             AVERAGES
 CPU TIME [s]                 =                        0.08                 0.07
 ENERGY DRIFT PER ATOM [K]    =          0.631089080772E-02  -0.289011931474E-01
 POTENTIAL ENERGY[hartree]    =          0.238944158988E+01   0.230993341875E+01
 KINETIC ENERGY [hartree]     =          0.246968178110E+01   0.254908854856E+01
 TEMPERATURE [K]              =                     578.319              596.913
 *******************************************************************************

 FOBSH| Put former active state           4 in new active state           4
 RANDOM_NUMBER_HOPPING_PROBA  0.99880020244755841     
 FOBSH| ACTIVE STATE =            4

 ENERGY| Total FORCE_EVAL ( MIXED ) energy (a.u.):             2.412117023475900

 FOBSH| CASE1: no hop and no trivial crossing
 ENTER integrator.F
 STEP NUMBER                  =           23
 CPU TIME [s]                 =    7.5151242315769196E-002   7.3171367625827363E-002

 *******************************************************************************
 ENSEMBLE TYPE                =                                              NVE
 STEP NUMBER                  =                                               23
 TIME [fs]                    =                                         2.300000
 CONSERVED QUANTITY [hartree] =                               0.485914602795E+01

                                              INSTANTANEOUS             AVERAGES
 CPU TIME [s]                 =                        0.08                 0.07
 ENERGY DRIFT PER ATOM [K]    =          0.142603317377E-01  -0.270246051089E-01
 POTENTIAL ENERGY[hartree]    =          0.241211702348E+01   0.231437618417E+01
 KINETIC ENERGY [hartree]     =          0.244702900447E+01   0.254465117708E+01
 TEMPERATURE [K]              =                     573.014              595.874
 *******************************************************************************

 FOBSH| Put former active state           4 in new active state           4
 RANDOM_NUMBER_HOPPING_PROBA   4.6356293755143212E-002
 FOBSH| ACTIVE STATE =            4

 ENERGY| Total FORCE_EVAL ( MIXED ) energy (a.u.):             2.435102088804611

 FOBSH| CASE1: no hop and no trivial crossing
 ENTER integrator.F
 STEP NUMBER                  =           24
 CPU TIME [s]                 =    6.1923986300826073E-002   7.2702726737285644E-002

 *******************************************************************************
 ENSEMBLE TYPE                =                                              NVE
 STEP NUMBER                  =                                               24
 TIME [fs]                    =                                         2.400000
 CONSERVED QUANTITY [hartree] =                               0.485916895739E+01

                                              INSTANTANEOUS             AVERAGES
 CPU TIME [s]                 =                        0.06                 0.07
 ENERGY DRIFT PER ATOM [K]    =          0.223053728860E-01  -0.249691893591E-01
 POTENTIAL ENERGY[hartree]    =          0.243510208880E+01   0.231940643020E+01
 KINETIC ENERGY [hartree]     =          0.242406686858E+01   0.253962683089E+01
 TEMPERATURE [K]              =                     567.637              594.698
 *******************************************************************************

 FOBSH| Put former active state           4 in new active state           4
 RANDOM_NUMBER_HOPPING_PROBA  0.61314907403080898     
 FOBSH| ACTIVE STATE =            4

 ENERGY| Total FORCE_EVAL ( MIXED ) energy (a.u.):             2.458026497401502

 FOBSH| CASE1: no hop and no trivial crossing
 ENTER integrator.F
 STEP NUMBER                  =           25
 CPU TIME [s]                 =    3.7717277184128761E-002   7.1303308755159375E-002

 *******************************************************************************
 ENSEMBLE TYPE                =                                              NVE
 STEP NUMBER                  =                                               25
 TIME [fs]                    =                                         2.500000
 CONSERVED QUANTITY [hartree] =                               0.485919184483E+01

                                              INSTANTANEOUS             AVERAGES
 CPU TIME [s]                 =                        0.04                 0.07
 ENERGY DRIFT PER ATOM [K]    =          0.303356768619E-01  -0.227569947103E-01
 POTENTIAL ENERGY[hartree]    =          0.245802649740E+01   0.232495123288E+01
 KINETIC ENERGY [hartree]     =          0.240116534743E+01   0.253408837155E+01
 TEMPERATURE [K]              =                     562.274              593.401
 *******************************************************************************

 FOBSH| Put former active state           4 in new active state           4
 RANDOM_NUMBER_HOPPING_PROBA  0.74387583549278180     
 FOBSH| ACTIVE STATE =            4

 ENERGY| Total FORCE_EVAL ( MIXED ) energy (a.u.):             2.480520548481743

 FOBSH| CASE1: no hop and no trivial crossing
 ENTER integrator.F
 STEP NUMBER                  =           26
 CPU TIME [s]                 =    5.3036358207464218E-002   7.0600733734094187E-002

 *******************************************************************************
 ENSEMBLE TYPE                =                                              NVE
 STEP NUMBER                  =                                               26
 TIME [fs]                    =                                         2.600000
 CONSERVED QUANTITY [hartree] =                               0.485921437799E+01

                                              INSTANTANEOUS             AVERAGES
 CPU TIME [s]                 =                        0.05                 0.07
 ENERGY DRIFT PER ATOM [K]    =          0.382416786038E-01  -0.204108918905E-01
 POTENTIAL ENERGY[hartree]    =          0.248052054848E+01   0.233093466810E+01
 KINETIC ENERGY [hartree]     =          0.237869382951E+01   0.252811165840E+01
 TEMPERATURE [K]              =                     557.012              592.001
 *******************************************************************************

 FOBSH| Put former active state           4 in new active state           4
 RANDOM_NUMBER_HOPPING_PROBA  0.51449155877675967     
 FOBSH| ACTIVE STATE =            4

 ENERGY| Total FORCE_EVAL ( MIXED ) energy (a.u.):             2.502220138468282

 FOBSH| CASE1: no hop and no trivial crossing
 ENTER integrator.F
 STEP NUMBER                  =           27
 CPU TIME [s]                 =    7.6728193089365959E-002   7.0827676673178325E-002

 *******************************************************************************
 ENSEMBLE TYPE                =                                              NVE
 STEP NUMBER                  =                                               27
 TIME [fs]                    =                                         2.700000
 CONSERVED QUANTITY [hartree] =                               0.485923626211E+01

                                              INSTANTANEOUS             AVERAGES
 CPU TIME [s]                 =                        0.08                 0.07
 ENERGY DRIFT PER ATOM [K]    =          0.459199563153E-01  -0.179541938088E-01
 POTENTIAL ENERGY[hartree]    =          0.250222013847E+01   0.233727857441E+01
 KINETIC ENERGY [hartree]     =          0.235701612364E+01   0.252177478674E+01
 TEMPERATURE [K]              =                     551.936              590.517
 *******************************************************************************

 FOBSH| Put former active state           4 in new active state           4
 RANDOM_NUMBER_HOPPING_PROBA  0.17176330176339644     
 FOBSH| ACTIVE STATE =            4

 ENERGY| Total FORCE_EVAL ( MIXED ) energy (a.u.):             2.522771581351407

 FOBSH| CASE1: no hop and no trivial crossing
 ENTER integrator.F
 STEP NUMBER                  =           28
 CPU TIME [s]                 =    5.0328230485320091E-002   7.0095553595040536E-002

 *******************************************************************************
 ENSEMBLE TYPE                =                                              NVE
 STEP NUMBER                  =                                               28
 TIME [fs]                    =                                         2.800000
 CONSERVED QUANTITY [hartree] =                               0.485925719423E+01

                                              INSTANTANEOUS             AVERAGES
 CPU TIME [s]                 =                        0.05                 0.07
 ENERGY DRIFT PER ATOM [K]    =          0.532642161050E-01  -0.154106791690E-01
 POTENTIAL ENERGY[hartree]    =          0.252277158135E+01   0.234390332466E+01
 KINETIC ENERGY [hartree]     =          0.233648561288E+01   0.251515731625E+01
 TEMPERATURE [K]              =                     547.129              588.968
 *******************************************************************************

 FOBSH| Put former active state           4 in new active state           4
 RANDOM_NUMBER_HOPPING_PROBA  0.49148359434413441     
 FOBSH| ACTIVE STATE =            4

 ENERGY| Total FORCE_EVAL ( MIXED ) energy (a.u.):             2.541836444248235

 FOBSH| CASE1: no hop and no trivial crossing
 ENTER integrator.F
 STEP NUMBER                  =           29
 CPU TIME [s]                 =    3.7668040022253990E-002   6.8977363471841011E-002

 *******************************************************************************
 ENSEMBLE TYPE                =                                              NVE
 STEP NUMBER                  =                                               29
 TIME [fs]                    =                                         2.900000
 CONSERVED QUANTITY [hartree] =                               0.485927688778E+01

                                              INSTANTANEOUS             AVERAGES
 CPU TIME [s]                 =                        0.04                 0.07
 ENERGY DRIFT PER ATOM [K]    =          0.601739071961E-01  -0.128043141220E-01
 POTENTIAL ENERGY[hartree]    =          0.254183644425E+01   0.235072860464E+01
 KINETIC ENERGY [hartree]     =          0.231744044353E+01   0.250833949305E+01
 TEMPERATURE [K]              =                     542.669              587.371
 *******************************************************************************

 FOBSH| Put former active state           4 in new active state           4
 RANDOM_NUMBER_HOPPING_PROBA   1.0672103664790645E-002
 FOBSH| ACTIVE STATE =            4

 ENERGY| Total FORCE_EVAL ( MIXED ) energy (a.u.):             2.559096156037956

 FOBSH| CASE1: no hop and no trivial crossing
 ENTER integrator.F
 STEP NUMBER                  =           30
 CPU TIME [s]                 =    7.5591571629047394E-002   6.9197837077081215E-002

 *******************************************************************************
 ENSEMBLE TYPE                =                                              NVE
 STEP NUMBER                  =                                               30
 TIME [fs]                    =                                         3.000000
 CONSERVED QUANTITY [hartree] =                               0.485929507808E+01

                                              INSTANTANEOUS             AVERAGES
 CPU TIME [s]                 =                        0.08                 0.07
 ENERGY DRIFT PER ATOM [K]    =          0.665561702086E-01  -0.101589646443E-01
 POTENTIAL ENERGY[hartree]    =          0.255909615604E+01   0.235767418969E+01
 KINETIC ENERGY [hartree]     =          0.230019892204E+01   0.250140147402E+01
 TEMPERATURE [K]              =                     538.631              585.747
 *******************************************************************************

 FOBSH| Put former active state           4 in new active state           4
 RANDOM_NUMBER_HOPPING_PROBA  0.66487806180832842     
 FOBSH| ACTIVE STATE =            4

 ENERGY| Total FORCE_EVAL ( MIXED ) energy (a.u.):             2.574256295602804

 FOBSH| CASE1: no hop and no trivial crossing
 ENTER integrator.F
 STEP NUMBER                  =           31
 CPU TIME [s]                 =    6.3369423151016235E-002   6.9009823724627509E-002

 *******************************************************************************
 ENSEMBLE TYPE                =                                              NVE
 STEP NUMBER                  =                                               31
 TIME [fs]                    =                                         3.100000
 CONSERVED QUANTITY [hartree] =                               0.485931149208E+01

                                              INSTANTANEOUS             AVERAGES
 CPU TIME [s]                 =                        0.06                 0.07
 ENERGY DRIFT PER ATOM [K]    =          0.723151984651E-01  -0.749850776979E-02
 POTENTIAL ENERGY[hartree]    =          0.257425629560E+01   0.236466070924E+01
 KINETIC ENERGY [hartree]     =          0.228505519648E+01   0.249442256184E+01
 TEMPERATURE [K]              =                     535.085              584.112
 *******************************************************************************

 FOBSH| Put former active state           4 in new active state           4
 RANDOM_NUMBER_HOPPING_PROBA  0.35668735676234831     
 FOBSH| ACTIVE STATE =            4

 ENERGY| Total FORCE_EVAL ( MIXED ) energy (a.u.):             2.587050747727383

 FOBSH| CASE1: no hop and no trivial crossing
 ENTER integrator.F
 STEP NUMBER                  =           32
 CPU TIME [s]                 =    3.6944510415196419E-002   6.8007782683707788E-002

 *******************************************************************************
 ENSEMBLE TYPE                =                                              NVE
 STEP NUMBER                  =                                               32
 TIME [fs]                    =                                         3.200000
 CONSERVED QUANTITY [hartree] =                               0.485932592099E+01

                                              INSTANTANEOUS             AVERAGES
 CPU TIME [s]                 =                        0.04                 0.07
 ENERGY DRIFT PER ATOM [K]    =          0.773777361467E-01  -0.484612514740E-02
 POTENTIAL ENERGY[hartree]    =          0.258705074773E+01   0.237161039794E+01
 KINETIC ENERGY [hartree]     =          0.227227517327E+01   0.248748045594E+01
 TEMPERATURE [K]              =                     532.093              582.487
 *******************************************************************************

 FOBSH| Put former active state           4 in new active state           4
 RANDOM_NUMBER_HOPPING_PROBA  0.25602569204134495     
 FOBSH| ACTIVE STATE =            4

 ENERGY| Total FORCE_EVAL ( MIXED ) energy (a.u.):             2.597245284709475

 FOBSH| CASE1: no hop and no trivial crossing
 ENTER integrator.F
 STEP NUMBER                  =           33
 CPU TIME [s]                 =    6.3578944653272629E-002   6.7873575470664305E-002

 *******************************************************************************
 ENSEMBLE TYPE                =                                              NVE
 STEP NUMBER                  =                                               33
 TIME [fs]                    =                                         3.300000
 CONSERVED QUANTITY [hartree] =                               0.485933816003E+01

                                              INSTANTANEOUS             AVERAGES
 CPU TIME [s]                 =                        0.06                 0.07
 ENERGY DRIFT PER ATOM [K]    =          0.816719327111E-01  -0.222436581835E-02
 POTENTIAL ENERGY[hartree]    =          0.259724528471E+01   0.237844781875E+01
 KINETIC ENERGY [hartree]     =          0.226209287532E+01   0.248065052926E+01
 TEMPERATURE [K]              =                     529.708              580.887
 *******************************************************************************

 FOBSH| Put former active state           4 in new active state           4
 RANDOM_NUMBER_HOPPING_PROBA  0.31839316669520429     
 FOBSH| ACTIVE STATE =            4

 ENERGY| Total FORCE_EVAL ( MIXED ) energy (a.u.):             2.604640793150136

 FOBSH| CASE1: no hop and no trivial crossing
 ENTER integrator.F
 STEP NUMBER                  =           34
 CPU TIME [s]                 =    7.5775086879730225E-002   6.8105972865048603E-002

 *******************************************************************************
 ENSEMBLE TYPE                =                                              NVE
 STEP NUMBER                  =                                               34
 TIME [fs]                    =                                         3.400000
 CONSERVED QUANTITY [hartree] =                               0.485934803010E+01

                                              INSTANTANEOUS             AVERAGES
 CPU TIME [s]                 =                        0.08                 0.07
 ENERGY DRIFT PER ATOM [K]    =          0.851349523889E-01   0.345025893625E-03
 POTENTIAL ENERGY[hartree]    =          0.260464079315E+01   0.238510055329E+01
 KINETIC ENERGY [hartree]     =          0.225470723695E+01   0.247400513831E+01
 TEMPERATURE [K]              =                     527.979              579.331
 *******************************************************************************

 FOBSH| Put former active state           4 in new active state           4
 RANDOM_NUMBER_HOPPING_PROBA  0.30362964774364765     
 FOBSH| ACTIVE STATE =            4

 ENERGY| Total FORCE_EVAL ( MIXED ) energy (a.u.):             2.609076068277755

 FOBSH| CASE1: no hop and no trivial crossing
 ENTER integrator.F
 STEP NUMBER                  =           35
 CPU TIME [s]                 =    8.2983482629060745E-002   6.8531044572591807E-002

 *******************************************************************************
 ENSEMBLE TYPE                =                                              NVE
 STEP NUMBER                  =                                               35
 TIME [fs]                    =                                         3.500000
 CONSERVED QUANTITY [hartree] =                               0.485935539267E+01

                                              INSTANTANEOUS             AVERAGES
 CPU TIME [s]                 =                        0.08                 0.07
 ENERGY DRIFT PER ATOM [K]    =          0.877181902820E-01   0.284140201901E-02
 POTENTIAL ENERGY[hartree]    =          0.260907606828E+01   0.239149985372E+01
 KINETIC ENERGY [hartree]     =          0.225027932439E+01   0.246761297220E+01
 TEMPERATURE [K]              =                     526.942              577.834
 *******************************************************************************

 FOBSH| Put former active state           4 in new active state           4
 RANDOM_NUMBER_HOPPING_PROBA  0.48480552012090300     
 FOBSH| ACTIVE STATE =            4

 ENERGY| Total FORCE_EVAL ( MIXED ) energy (a.u.):             2.610430070857129

 FOBSH| CASE1: no hop and no trivial crossing
 ENTER integrator.F
 STEP NUMBER                  =           36
 CPU TIME [s]                 =    9.4979453831911087E-002   6.9265722607572897E-002

 *******************************************************************************
 ENSEMBLE TYPE                =                                              NVE
 STEP NUMBER                  =                                               36
 TIME [fs]                    =                                         3.600000
 CONSERVED QUANTITY [hartree] =                               0.485936014297E+01

                                              INSTANTANEOUS             AVERAGES
 CPU TIME [s]                 =                        0.09                 0.07
 ENERGY DRIFT PER ATOM [K]    =          0.893848852126E-01   0.524538766328E-02
 POTENTIAL ENERGY[hartree]    =          0.261043007086E+01   0.239758124864E+01
 KINETIC ENERGY [hartree]     =          0.224893007212E+01   0.246153844719E+01
 TEMPERATURE [K]              =                     526.626              576.412
 *******************************************************************************

 FOBSH| Put former active state           4 in new active state           4
 RANDOM_NUMBER_HOPPING_PROBA  0.59258053737151251     
 FOBSH| ACTIVE STATE =            4

 ENERGY| Total FORCE_EVAL ( MIXED ) energy (a.u.):             2.608623623529241

 FOBSH| CASE1: no hop and no trivial crossing
 ENTER integrator.F
 STEP NUMBER                  =           37
 CPU TIME [s]                 =    7.7106576412916183E-002   6.9477637575284884E-002

 *******************************************************************************
 ENSEMBLE TYPE                =                                              NVE
 STEP NUMBER                  =                                               37
 TIME [fs]                    =                                         3.700000
 CONSERVED QUANTITY [hartree] =                               0.485936219745E+01

                                              INSTANTANEOUS             AVERAGES
 CPU TIME [s]                 =                        0.08                 0.07
 ENERGY DRIFT PER ATOM [K]    =          0.901057195402E-01   0.753891014643E-02
 POTENTIAL ENERGY[hartree]    =          0.260862362353E+01   0.240328509661E+01
 KINETIC ENERGY [hartree]     =          0.225073857392E+01   0.245584115332E+01
 TEMPERATURE [K]              =                     527.049              575.078
 *******************************************************************************

 FOBSH| Put former active state           4 in new active state           4
 RANDOM_NUMBER_HOPPING_PROBA  0.82802406866778777     
 FOBSH| ACTIVE STATE =            4

 ENERGY| Total FORCE_EVAL ( MIXED ) energy (a.u.):             2.603620620061996

 FOBSH| CASE1: no hop and no trivial crossing
 ENTER integrator.F
 STEP NUMBER                  =           38
 CPU TIME [s]                 =    8.4847947582602501E-002   6.9882119417582711E-002

 *******************************************************************************
 ENSEMBLE TYPE                =                                              NVE
 STEP NUMBER                  =                                               38
 TIME [fs]                    =                                         3.800000
 CONSERVED QUANTITY [hartree] =                               0.485936154796E+01

                                              INSTANTANEOUS             AVERAGES
 CPU TIME [s]                 =                        0.08                 0.07
 ENERGY DRIFT PER ATOM [K]    =          0.898778399466E-01   0.970572408854E-02
 POTENTIAL ENERGY[hartree]    =          0.260362062006E+01   0.240855708407E+01
 KINETIC ENERGY [hartree]     =          0.225574092790E+01   0.245057535792E+01
 TEMPERATURE [K]              =                     528.221              573.845
 *******************************************************************************

 FOBSH| Put former active state           4 in new active state           4
 RANDOM_NUMBER_HOPPING_PROBA  0.75328018252790863     
 FOBSH| ACTIVE STATE =            4

 ENERGY| Total FORCE_EVAL ( MIXED ) energy (a.u.):             2.595428563548956

 FOBSH| CASE1: no hop and no trivial crossing
 ENTER integrator.F
 STEP NUMBER                  =           39
 CPU TIME [s]                 =   0.11014183610677719        7.0914419845510779E-002

 *******************************************************************************
 ENSEMBLE TYPE                =                                              NVE
 STEP NUMBER                  =                                               39
 TIME [fs]                    =                                         3.900000
 CONSERVED QUANTITY [hartree] =                               0.485935817167E+01

                                              INSTANTANEOUS             AVERAGES
 CPU TIME [s]                 =                        0.11                 0.07
 ENERGY DRIFT PER ATOM [K]    =          0.886932303581E-01   0.117310447621E-01
 POTENTIAL ENERGY[hartree]    =          0.259542856355E+01   0.241334866047E+01
 KINETIC ENERGY [hartree]     =          0.226392960812E+01   0.244578956946E+01
 TEMPERATURE [K]              =                     530.138              572.724
 *******************************************************************************

 FOBSH| Put former active state           4 in new active state           4
 RANDOM_NUMBER_HOPPING_PROBA  0.66104059957350725     
 FOBSH| ACTIVE STATE =            4

 ENERGY| Total FORCE_EVAL ( MIXED ) energy (a.u.):             2.584098681199218

 FOBSH| CASE1: no hop and no trivial crossing
 ENTER integrator.F
 STEP NUMBER                  =           40
 CPU TIME [s]                 =    8.5706194862723351E-002   7.1284214220941097E-002

 *******************************************************************************
 ENSEMBLE TYPE                =                                              NVE
 STEP NUMBER                  =                                               40
 TIME [fs]                    =                                         4.000000
 CONSERVED QUANTITY [hartree] =                               0.485935211020E+01

                                              INSTANTANEOUS             AVERAGES
 CPU TIME [s]                 =                        0.09                 0.07
 ENERGY DRIFT PER ATOM [K]    =          0.865665006454E-01   0.136019311592E-01
 POTENTIAL ENERGY[hartree]    =          0.258409868120E+01   0.241761741098E+01
 KINETIC ENERGY [hartree]     =          0.227525342900E+01   0.244152616595E+01
 TEMPERATURE [K]              =                     532.790              571.726
 *******************************************************************************

 FOBSH| Put former active state           4 in new active state           4
 RANDOM_NUMBER_HOPPING_PROBA   2.5683806357493563E-002
 FOBSH| ACTIVE STATE =            4

 ENERGY| Total FORCE_EVAL ( MIXED ) energy (a.u.):             2.569725383359103

 FOBSH| CASE1: no hop and no trivial crossing
 ENTER integrator.F
 STEP NUMBER                  =           41
 CPU TIME [s]                 =    8.7830914184451103E-002   7.1687792268831596E-002

 *******************************************************************************
 ENSEMBLE TYPE                =                                              NVE
 STEP NUMBER                  =                                               41
 TIME [fs]                    =                                         4.100000
 CONSERVED QUANTITY [hartree] =                               0.485934342068E+01

                                              INSTANTANEOUS             AVERAGES
 CPU TIME [s]                 =                        0.09                 0.07
 ENERGY DRIFT PER ATOM [K]    =          0.835176873667E-01   0.153071935057E-01
 POTENTIAL ENERGY[hartree]    =          0.256972538336E+01   0.242132736153E+01
 KINETIC ENERGY [hartree]     =          0.228961803732E+01   0.243782108964E+01
 TEMPERATURE [K]              =                     536.154              570.858
 *******************************************************************************

 FOBSH| Put former active state           4 in new active state           4
 RANDOM_NUMBER_HOPPING_PROBA  0.90989130718107158     
 FOBSH| ACTIVE STATE =            4

 ENERGY| Total FORCE_EVAL ( MIXED ) energy (a.u.):             2.552445274040476

 FOBSH| CASE1: no hop and no trivial crossing
 ENTER integrator.F
 STEP NUMBER                  =           42
 CPU TIME [s]                 =    9.7186399623751640E-002   7.2294901967758257E-002

 *******************************************************************************
 ENSEMBLE TYPE                =                                              NVE
 STEP NUMBER                  =                                               42
 TIME [fs]                    =                                         4.200000
 CONSERVED QUANTITY [hartree] =                               0.485933220124E+01

                                              INSTANTANEOUS             AVERAGES
 CPU TIME [s]                 =                        0.10                 0.07
 ENERGY DRIFT PER ATOM [K]    =          0.795812266331E-01   0.168375276278E-01
 POTENTIAL ENERGY[hartree]    =          0.255244527404E+01   0.242444921659E+01
 KINETIC ENERGY [hartree]     =          0.230688692720E+01   0.243470360958E+01
 TEMPERATURE [K]              =                     540.198              570.128
 *******************************************************************************

 FOBSH| Put former active state           4 in new active state           4
 RANDOM_NUMBER_HOPPING_PROBA  0.23290914517014807     
 FOBSH| ACTIVE STATE =            4

 ENERGY| Total FORCE_EVAL ( MIXED ) energy (a.u.):             2.532435563655278

 FOBSH| CASE1: no hop and no trivial crossing
 ENTER integrator.F
 STEP NUMBER                  =           43
 CPU TIME [s]                 =    6.9298703223466873E-002   7.2225222927193342E-002

 *******************************************************************************
 ENSEMBLE TYPE                =                                              NVE
 STEP NUMBER                  =                                               43
 TIME [fs]                    =                                         4.300000
 CONSERVED QUANTITY [hartree] =                               0.485931858522E+01

                                              INSTANTANEOUS             AVERAGES
 CPU TIME [s]                 =                        0.07                 0.07
 ENERGY DRIFT PER ATOM [K]    =          0.748039002778E-01   0.181855828057E-01
 POTENTIAL ENERGY[hartree]    =          0.253243556366E+01   0.242696052699E+01
 KINETIC ENERGY [hartree]     =          0.232688302156E+01   0.243219615405E+01
 TEMPERATURE [K]              =                     544.880              569.541
 *******************************************************************************

 FOBSH| Put former active state           4 in new active state           4
 RANDOM_NUMBER_HOPPING_PROBA  0.32290045874270040     
 FOBSH| ACTIVE STATE =            4

 ENERGY| Total FORCE_EVAL ( MIXED ) energy (a.u.):             2.509911891888939

 FOBSH| CASE1: no hop and no trivial crossing
 ENTER integrator.F
 STEP NUMBER                  =           44
 CPU TIME [s]                 =    3.9446434006094933E-002   7.1480250451713828E-002

 *******************************************************************************
 ENSEMBLE TYPE                =                                              NVE
 STEP NUMBER                  =                                               44
 TIME [fs]                    =                                         4.400000
 CONSERVED QUANTITY [hartree] =                               0.485930273511E+01

                                              INSTANTANEOUS             AVERAGES
 CPU TIME [s]                 =                        0.04                 0.07
 ENERGY DRIFT PER ATOM [K]    =          0.692427206684E-01   0.193459723026E-01
 POTENTIAL ENERGY[hartree]    =          0.250991189189E+01   0.242884578528E+01
 KINETIC ENERGY [hartree]     =          0.234939084322E+01   0.243031421516E+01
 TEMPERATURE [K]              =                     550.151              569.100
 *******************************************************************************

 FOBSH| Put former active state           4 in new active state           4
 RANDOM_NUMBER_HOPPING_PROBA   9.7544926984548766E-002
 FOBSH| ACTIVE STATE =            4

 ENERGY| Total FORCE_EVAL ( MIXED ) energy (a.u.):             2.485125691648677

 FOBSH| CASE1: no hop and no trivial crossing
 ENTER integrator.F
 STEP NUMBER                  =           45
 CPU TIME [s]                 =    4.2625706642866135E-002   7.0839038367072768E-002

 *******************************************************************************
 ENSEMBLE TYPE                =                                              NVE
 STEP NUMBER                  =                                               45
 TIME [fs]                    =                                         4.500000
 CONSERVED QUANTITY [hartree] =                               0.485928484401E+01

                                              INSTANTANEOUS             AVERAGES
 CPU TIME [s]                 =                        0.04                 0.07
 ENERGY DRIFT PER ATOM [K]    =          0.629654367900E-01   0.203152937356E-01
 POTENTIAL ENERGY[hartree]    =          0.248512569165E+01   0.243009644987E+01
 KINETIC ENERGY [hartree]     =          0.237415915236E+01   0.242906632488E+01
 TEMPERATURE [K]              =                     555.951              568.808
 *******************************************************************************

 FOBSH| Put former active state           4 in new active state           4
 RANDOM_NUMBER_HOPPING_PROBA  0.71348210410314561     
 FOBSH| ACTIVE STATE =            4

 ENERGY| Total FORCE_EVAL ( MIXED ) energy (a.u.):             2.458361122360343

 FOBSH| CASE1: no hop and no trivial crossing
 ENTER integrator.F
 STEP NUMBER                  =           46
 CPU TIME [s]                 =    4.1544787585735321E-002   7.0202206828348046E-002

 *******************************************************************************
 ENSEMBLE TYPE                =                                              NVE
 STEP NUMBER                  =                                               46
 TIME [fs]                    =                                         4.600000
 CONSERVED QUANTITY [hartree] =                               0.485926514874E+01

                                              INSTANTANEOUS             AVERAGES
 CPU TIME [s]                 =                        0.04                 0.07
 ENERGY DRIFT PER ATOM [K]    =          0.560551384072E-01   0.210922468807E-01
 POTENTIAL ENERGY[hartree]    =          0.245836112236E+01   0.243071089927E+01
 KINETIC ENERGY [hartree]     =          0.240090402638E+01   0.242845410100E+01
 TEMPERATURE [K]              =                     562.213              568.665
 *******************************************************************************

 FOBSH| Put former active state           4 in new active state           4
 RANDOM_NUMBER_HOPPING_PROBA  0.23217762780677217     
 FOBSH| ACTIVE STATE =            4

 ENERGY| Total FORCE_EVAL ( MIXED ) energy (a.u.):             2.429931426917634

 FOBSH| CASE1: no hop and no trivial crossing
 ENTER integrator.F
 STEP NUMBER                  =           47
 CPU TIME [s]                 =    4.1876748204231262E-002   6.9599537495920030E-002

 *******************************************************************************
 ENSEMBLE TYPE                =                                              NVE
 STEP NUMBER                  =                                               47
 TIME [fs]                    =                                         4.700000
 CONSERVED QUANTITY [hartree] =                               0.485924388681E+01

                                              INSTANTANEOUS             AVERAGES
 CPU TIME [s]                 =                        0.04                 0.07
 ENERGY DRIFT PER ATOM [K]    =          0.485951625677E-01   0.216774152996E-01
 POTENTIAL ENERGY[hartree]    =          0.242993142692E+01   0.243069431475E+01
 KINETIC ENERGY [hartree]     =          0.242931245989E+01   0.242847236395E+01
 TEMPERATURE [K]              =                     568.866              568.669
 *******************************************************************************

 FOBSH| Put former active state           4 in new active state           4
 RANDOM_NUMBER_HOPPING_PROBA  0.86781090183757892     
 FOBSH| ACTIVE STATE =            4

 ENERGY| Total FORCE_EVAL ( MIXED ) energy (a.u.):             2.400175029076198

 FOBSH| CASE1: no hop and no trivial crossing
 ENTER integrator.F
 STEP NUMBER                  =           48
 CPU TIME [s]                 =    9.5492592081427574E-002   7.0138976133118092E-002

 *******************************************************************************
 ENSEMBLE TYPE                =                                              NVE
 STEP NUMBER                  =                                               48
 TIME [fs]                    =                                         4.800000
 CONSERVED QUANTITY [hartree] =                               0.485922133105E+01

                                              INSTANTANEOUS             AVERAGES
 CPU TIME [s]                 =                        0.10                 0.07
[...]
 CPU TIME [s]                 =                        0.02                 0.05
 ENERGY DRIFT PER ATOM [K]    =         -0.402693366257E-01   0.192765285251E-01
 POTENTIAL ENERGY[hartree]    =          0.221344168751E+01   0.240206073610E+01
 KINETIC ENERGY [hartree]     =          0.264554892358E+01   0.245709950944E+01
 TEMPERATURE [K]              =                     619.501              575.372
 *******************************************************************************

 FOBSH| Put former active state           1 in new active state           1
 RANDOM_NUMBER_HOPPING_PROBA  0.59469307812307037     
 FOBSH| ACTIVE STATE =            1

 ENERGY| Total FORCE_EVAL ( MIXED ) energy (a.u.):             2.222067795793654

 FOBSH| CASE1: no hop and no trivial crossing
 ENTER integrator.F
 STEP NUMBER                  =          291
 CPU TIME [s]                 =    2.0546205341815948E-002   5.4778074141579022E-002

 *******************************************************************************
 ENSEMBLE TYPE                =                                              NVE
 STEP NUMBER                  =                                              291
 TIME [fs]                    =                                        29.100000
 CONSERVED QUANTITY [hartree] =                               0.485899719009E+01

                                              INSTANTANEOUS             AVERAGES
 CPU TIME [s]                 =                        0.02                 0.05
 ENERGY DRIFT PER ATOM [K]    =         -0.379610246928E-01   0.190798359024E-01
 POTENTIAL ENERGY[hartree]    =          0.222206779579E+01   0.240144220366E+01
 KINETIC ENERGY [hartree]     =          0.263692939430E+01   0.245771748155E+01
 TEMPERATURE [K]              =                     617.483              575.517
 *******************************************************************************

 FOBSH| Put former active state           1 in new active state           1
 RANDOM_NUMBER_HOPPING_PROBA  0.76470935299516318     
 FOBSH| ACTIVE STATE =            1

 ENERGY| Total FORCE_EVAL ( MIXED ) energy (a.u.):             2.233461611864159

 FOBSH| CASE1: no hop and no trivial crossing
 ENTER integrator.F
 STEP NUMBER                  =          292
 CPU TIME [s]                 =    2.0599538460373878E-002   5.4661024361848866E-002

 *******************************************************************************
 ENSEMBLE TYPE                =                                              NVE
 STEP NUMBER                  =                                              292
 TIME [fs]                    =                                        29.200000
 CONSERVED QUANTITY [hartree] =                               0.485900608609E+01

                                              INSTANTANEOUS             AVERAGES
 CPU TIME [s]                 =                        0.02                 0.05
 ENERGY DRIFT PER ATOM [K]    =         -0.348397682894E-01   0.188951797236E-01
 POTENTIAL ENERGY[hartree]    =          0.223346161186E+01   0.240086692766E+01
 KINETIC ENERGY [hartree]     =          0.262554447423E+01   0.245829223153E+01
 TEMPERATURE [K]              =                     614.817              575.652
 *******************************************************************************

 FOBSH| Put former active state           1 in new active state           1
 RANDOM_NUMBER_HOPPING_PROBA  0.28237535542204839     
 FOBSH| ACTIVE STATE =            1

 ENERGY| Total FORCE_EVAL ( MIXED ) energy (a.u.):             2.247486129216024

 FOBSH| CASE1: no hop and no trivial crossing
 ENTER integrator.F
 STEP NUMBER                  =          293
 CPU TIME [s]                 =    2.0547244697809219E-002   5.4544595079719038E-002

 *******************************************************************************
 ENSEMBLE TYPE                =                                              NVE
 STEP NUMBER                  =                                              293
 TIME [fs]                    =                                        29.300000
 CONSERVED QUANTITY [hartree] =                               0.485901719388E+01

                                              INSTANTANEOUS             AVERAGES
 CPU TIME [s]                 =                        0.02                 0.05
 ENERGY DRIFT PER ATOM [K]    =         -0.309424824561E-01   0.187250853135E-01
 POTENTIAL ENERGY[hartree]    =          0.224748612922E+01   0.240034344370E+01
 KINETIC ENERGY [hartree]     =          0.261153106466E+01   0.245881523096E+01
 TEMPERATURE [K]              =                     611.535              575.774
 *******************************************************************************

 FOBSH| Put former active state           1 in new active state           1
 RANDOM_NUMBER_HOPPING_PROBA  0.37883099303507400     
 FOBSH| ACTIVE STATE =            1

 ENERGY| Total FORCE_EVAL ( MIXED ) energy (a.u.):             2.263969122746527

 FOBSH| CASE1: no hop and no trivial crossing
 ENTER integrator.F
 STEP NUMBER                  =          294
 CPU TIME [s]                 =    2.0505212247371674E-002   5.4428814866003573E-002

 *******************************************************************************
 ENSEMBLE TYPE                =                                              NVE
 STEP NUMBER                  =                                              294
 TIME [fs]                    =                                        29.400000
 CONSERVED QUANTITY [hartree] =                               0.485903035021E+01

                                              INSTANTANEOUS             AVERAGES
 CPU TIME [s]                 =                        0.02                 0.05
 ENERGY DRIFT PER ATOM [K]    =         -0.263264430013E-01   0.185718488226E-01
 POTENTIAL ENERGY[hartree]    =          0.226396912275E+01   0.239987958547E+01
 KINETIC ENERGY [hartree]     =          0.259506122746E+01   0.245927865271E+01
 TEMPERATURE [K]              =                     607.679              575.883
 *******************************************************************************

 FOBSH| Put former active state           1 in new active state           1
 RANDOM_NUMBER_HOPPING_PROBA  0.93283720245355239     
 FOBSH| ACTIVE STATE =            1

 ENERGY| Total FORCE_EVAL ( MIXED ) energy (a.u.):             2.282705493623971

 FOBSH| CASE1: no hop and no trivial crossing
 ENTER integrator.F
 STEP NUMBER                  =          295
 CPU TIME [s]                 =    2.0557824522256851E-002   5.4313997949584088E-002

 *******************************************************************************
 ENSEMBLE TYPE                =                                              NVE
 STEP NUMBER                  =                                              295
 TIME [fs]                    =                                        29.500000
 CONSERVED QUANTITY [hartree] =                               0.485904540589E+01

                                              INSTANTANEOUS             AVERAGES
 CPU TIME [s]                 =                        0.02                 0.05
 ENERGY DRIFT PER ATOM [K]    =         -0.210439955665E-01   0.184375578247E-01
 POTENTIAL ENERGY[hartree]    =          0.228270549362E+01   0.239948238516E+01
 KINETIC ENERGY [hartree]     =          0.257633991226E+01   0.245967547054E+01
 TEMPERATURE [K]              =                     603.295              575.976
 *******************************************************************************

 FOBSH| Put former active state           1 in new active state           1
 RANDOM_NUMBER_HOPPING_PROBA  0.60181218762345035     
 FOBSH| ACTIVE STATE =            1

 ENERGY| Total FORCE_EVAL ( MIXED ) energy (a.u.):             2.303459845875604

 FOBSH| CASE1: no hop and no trivial crossing
 ENTER integrator.F
 STEP NUMBER                  =          296
 CPU TIME [s]                 =    2.0542332902550697E-002   5.4199904486587361E-002

 *******************************************************************************
 ENSEMBLE TYPE                =                                              NVE
 STEP NUMBER                  =                                              296
 TIME [fs]                    =                                        29.600000
 CONSERVED QUANTITY [hartree] =                               0.485906215828E+01

                                              INSTANTANEOUS             AVERAGES
 CPU TIME [s]                 =                        0.02                 0.05
 ENERGY DRIFT PER ATOM [K]    =         -0.151662396459E-01   0.183240314819E-01
 POTENTIAL ENERGY[hartree]    =          0.230345984588E+01   0.239915798469E+01
 KINETIC ENERGY [hartree]     =          0.255560231240E+01   0.245999954771E+01
 TEMPERATURE [K]              =                     598.439              576.052
 *******************************************************************************

 FOBSH| Put former active state           1 in new active state           1
 RANDOM_NUMBER_HOPPING_PROBA  0.91120636126280841     
 FOBSH| ACTIVE STATE =            1

 ENERGY| Total FORCE_EVAL ( MIXED ) energy (a.u.):             2.325969603949465

 FOBSH| CASE1: no hop and no trivial crossing
 ENTER integrator.F
 STEP NUMBER                  =          297
 CPU TIME [s]                 =    2.0513029769062996E-002   5.4086480665989631E-002

 *******************************************************************************
 ENSEMBLE TYPE                =                                              NVE
 STEP NUMBER                  =                                              297
 TIME [fs]                    =                                        29.700000
 CONSERVED QUANTITY [hartree] =                               0.485908039541E+01

                                              INSTANTANEOUS             AVERAGES
 CPU TIME [s]                 =                        0.02                 0.05
 ENERGY DRIFT PER ATOM [K]    =         -0.876754582761E-02   0.182328140498E-01
 POTENTIAL ENERGY[hartree]    =          0.232596960395E+01   0.239891155916E+01
 KINETIC ENERGY [hartree]     =          0.253311079146E+01   0.246024571352E+01
 TEMPERATURE [K]              =                     593.172              576.109
 *******************************************************************************

 FOBSH| Put former active state           1 in new active state           1
 RANDOM_NUMBER_HOPPING_PROBA  0.89897746219935648     
 FOBSH| ACTIVE STATE =            1

 ENERGY| Total FORCE_EVAL ( MIXED ) energy (a.u.):             2.349948380966596

 FOBSH| CASE1: no hop and no trivial crossing
 ENTER integrator.F
 STEP NUMBER                  =          298
 CPU TIME [s]                 =    2.0625289529561996E-002   5.3974194789692898E-002

 *******************************************************************************
 ENSEMBLE TYPE                =                                              NVE
 STEP NUMBER                  =                                              298
 TIME [fs]                    =                                        29.800000
 CONSERVED QUANTITY [hartree] =                               0.485909989107E+01

                                              INSTANTANEOUS             AVERAGES
 CPU TIME [s]                 =                        0.02                 0.05
 ENERGY DRIFT PER ATOM [K]    =         -0.192728721141E-02   0.181651627033E-01
 POTENTIAL ENERGY[hartree]    =          0.234994838097E+01   0.239874725320E+01
 KINETIC ENERGY [hartree]     =          0.250915151010E+01   0.246040982693E+01
 TEMPERATURE [K]              =                     587.561              576.148
 *******************************************************************************

 FOBSH| Put former active state           1 in new active state           1
 RANDOM_NUMBER_HOPPING_PROBA   2.6420649489270316E-002
 FOBSH| ACTIVE STATE =            1

 ENERGY| Total FORCE_EVAL ( MIXED ) energy (a.u.):             2.375089707138147

 FOBSH| CASE1: no hop and no trivial crossing
 ENTER integrator.F
 STEP NUMBER                  =          299
 CPU TIME [s]                 =    2.0528638735413551E-002   5.3862336742688616E-002

 *******************************************************************************
 ENSEMBLE TYPE                =                                              NVE
 STEP NUMBER                  =                                              299
 TIME [fs]                    =                                        29.900000
 CONSERVED QUANTITY [hartree] =                               0.485912038165E+01

                                              INSTANTANEOUS             AVERAGES
 CPU TIME [s]                 =                        0.02                 0.05
 ENERGY DRIFT PER ATOM [K]    =          0.526205575780E-02   0.181220084995E-01
 POTENTIAL ENERGY[hartree]    =          0.237508970714E+01   0.239866813097E+01
 KINETIC ENERGY [hartree]     =          0.248403067452E+01   0.246048882642E+01
 TEMPERATURE [K]              =                     581.679              576.166
 *******************************************************************************

 FOBSH| Put former active state           1 in new active state           1
 RANDOM_NUMBER_HOPPING_PROBA  0.77369875668765553     
 FOBSH| ACTIVE STATE =            1

 ENERGY| Total FORCE_EVAL ( MIXED ) energy (a.u.):             2.401071036317436

 FOBSH| CASE1: no hop and no trivial crossing
 ENTER integrator.F
 STEP NUMBER                  =          300
 CPU TIME [s]                 =    2.0630808547139168E-002   5.3751564982036787E-002

 *******************************************************************************
 ENSEMBLE TYPE                =                                              NVE
 STEP NUMBER                  =                                              300
 TIME [fs]                    =                                        30.000000
 CONSERVED QUANTITY [hartree] =                               0.485914162218E+01

                                              INSTANTANEOUS             AVERAGES
 CPU TIME [s]                 =                        0.02                 0.05
 ENERGY DRIFT PER ATOM [K]    =          0.127145222903E-01   0.181039835455E-01
 POTENTIAL ENERGY[hartree]    =          0.240107103632E+01   0.239867614065E+01
 KINETIC ENERGY [hartree]     =          0.245807058586E+01   0.246048076562E+01
 TEMPERATURE [K]              =                     575.600              576.164
 *******************************************************************************


 -------------------------------------------------------------------------------
 -                                                                             -
 -                                DBCSR STATISTICS                             -
 -                                                                             -
 -------------------------------------------------------------------------------
 COUNTER                                    TOTAL       BLAS       SMM       ACC
 flops total                                    0       0.0%      0.0%      0.0%
 flops max/rank                                 0       0.0%      0.0%      0.0%
 matmuls inhomo. stacks                         0       0.0%      0.0%      0.0%
 matmuls total                                  0       0.0%      0.0%      0.0%
 number of processed stacks                     0       0.0%      0.0%      0.0%
 average stack size                                     0.0       0.0       0.0
 marketing flops                     0.000000E+00
 -------------------------------------------------------------------------------

 MEMORY| Estimated peak process memory [MiB]                                 108

 -------------------------------------------------------------------------------
 -                                                                             -
 -                           R E F E R E N C E S                               -
 -                                                                             -
 -------------------------------------------------------------------------------
 
 CP2K version 4.0 (Development Version), the CP2K developers group (2015).
 CP2K is freely available from https://www.cp2k.org/ .

 Borstnik, U; VandeVondele, J; Weber, V; Hutter, J. 
 PARALLEL COMPUTING, 40 (5-6), 47-58 (2014). 
 Sparse matrix multiplication: The distributed block-compressed sparse
 row library.
 http://dx.doi.org/10.1016/j.parco.2014.03.012


 Hutter, J; Iannuzzi, M; Schiffmann, F; VandeVondele, J. 
 WILEY INTERDISCIPLINARY REVIEWS-COMPUTATIONAL MOLECULAR SCIENCE, 4 (1), 15-25 (2014). 
 CP2K: atomistic simulations of condensed matter systems.
 http://dx.doi.org/10.1002/wcms.1159


 Frigo, M; Johnson, SG. 
 PROCEEDINGS OF THE IEEE, 93 (2), 216-231 (2005). 
 The design and implementation of FFTW3.
 http://dx.doi.org/10.1109/JPROC.2004.840301


 -------------------------------------------------------------------------------
 -                                                                             -
 -                                T I M I N G                                  -
 -                                                                             -
 -------------------------------------------------------------------------------
 SUBROUTINE                       CALLS  ASD         SELF TIME        TOTAL TIME
                                MAXIMUM       AVERAGE  MAXIMUM  AVERAGE  MAXIMUM
 CP2K                                 1  1.0    0.068    0.068   38.306   38.306
 topology_control                    10  4.0    0.012    0.012   20.210   20.210
 connectivity_control                10  5.0    0.016    0.016   19.315   19.315
 read_topology_psf                  500  6.0    8.381    8.381   19.243   19.243
 fist_create_force_env                9  2.0    0.000    0.000   18.899   18.899
 fist_init                            9  3.0    0.018    0.018   18.899   18.899
 qs_mol_dyn_low                       1  2.0    0.019    0.019   16.187   16.187
 velocity_verlet                    300  3.0    1.451    1.451   14.531   14.531
 fist_calc_energy_force            2745  4.0    0.214    0.214   13.305   13.305
 parser_read_line                 43422  7.1    0.571    0.571   12.660   12.660
 parser_read_line_low               591  7.9   12.083   12.083   12.089   12.089
 force_nonbond                      305  5.0    6.959    6.959    6.959    6.959
 force_intra_control               2745  5.0    5.575    5.575    5.575    5.575
 mixed_create_force_env               1  2.0    0.001    0.001    3.140    3.140
 mixed_init                           1  3.0    0.000    0.000    3.139    3.139
 force_field_control                  9  4.0    0.001    0.001    1.806    1.806
 read_force_field_charmm              9  5.0    0.335    0.335    1.759    1.759
 md_output                          300  3.0    0.001    0.001    1.348    1.348
 md_write_output                    301  4.0    1.071    1.071    1.121    1.121
 -------------------------------------------------------------------------------

 The number of warnings for this run is : 1
 
 -------------------------------------------------------------------------------
  **** **** ******  **  PROGRAM ENDED AT                 2021-04-29 14:24:10.334
 ***** ** ***  *** **   PROGRAM RAN ON                   bulstake.phys.ucl.ac.uk
 **    ****   ******    PROGRAM RAN BY                                 sgiannini
 ***** **    ** ** **   PROGRAM PROCESS ID                                 12998
  **** **  *******  **  PROGRAM STOPPED IN /scratch/sgiannini/REG_TEST_MERGING/3
                                           7-071a0540f1_code_extension_V3_ADJ/ru
                                           n-fssh-MTS1_NFF_FROZEN_C_FIRST_OFF_RE
                                           SCALING
