#     Step Nr.          Time[fs]        Kin.[a.u.]          Temp[K]            Pot.[a.u.]        Cons Qty[a.u.]        UsedTime[s]
         0            0.000000         2.412123729       564.840579357         2.446232237         4.858355966         0.000000000
         1            0.100000         2.440711635       571.534932970         2.417622463         4.858334098         0.689070111
         2            0.200000         2.467926337       577.907727287         2.390387005         4.858313343         0.210975949
         3            0.300000         2.493438360       583.881809487         2.364855785         4.858294145         0.216535907
         4            0.400000         2.516943073       589.385845575         2.341333706         4.858276780         0.233509349
         5            0.500000         2.538165204       594.355375383         2.320096267         4.858261471         0.230677966
         6            0.600000         2.556862429       598.733654720         2.301385972         4.858248402         0.263238193
         7            0.700000         2.572828478       602.472381632         2.285409276         4.858237753         0.243790504
         8            0.800000         2.585895729       605.532304934         2.272333912         4.858229640         0.211811367
         9            0.900000         2.595937308       607.883714724         2.262286866         4.858224174         0.252530802
        10            1.000000         2.602868628       609.506803431         2.255352780         4.858221407         0.215717509
        11            1.100000         2.606648384       610.391898864         2.251572995         4.858221379         0.183237890
        12            1.200000         2.607278962       610.539559627         2.250945093         4.858224055         0.204245824
        13            1.300000         2.604806228       609.960526093         2.253423179         4.858229407         0.173991472
        14            1.400000         2.599318800       608.675549740         2.258918546         4.858237345         0.228005780
        15            1.500000         2.590946783       606.715096912         2.267300984         4.858247767         0.234613875
        16            1.600000         2.579859945       604.118921639         2.278400564         4.858260509         0.224139433
        17            1.700000         2.566265280       600.935495270         2.292010118         4.858275399         0.213087676
        18            1.800000         2.550404135       597.221333179         2.307888094         4.858292229         0.185088105
        19            1.900000         2.532548933       593.040228212         2.325761842         4.858310776         0.207525864
        20            2.000000         2.512999478       588.462384325         2.345331291         4.858330769         0.199139064
        21            2.100000         2.492078836       583.563453475         2.366273103         4.858351940         0.193447461
        22            2.200000         2.470128917       578.423499507         2.388245080         4.858373997         0.159780554
        23            2.300000         2.447505855       573.125917361         2.410890802         4.858396657         0.208465431
        24            2.400000         2.424575211       567.756309701         2.433844378         4.858419589         0.184310798
        25            2.500000         2.401707007       562.401323229         2.456735466         4.858442473         0.186396621
        26            2.600000         2.379270647       557.147460667         2.479194358         4.858465005         0.209459899
        27            2.700000         2.357629931       552.079911913         2.500856953         4.858486884         0.242415346
        28            2.800000         2.337138203       547.281418825         2.521369608         4.858507812         0.198337717
        29            2.900000         2.318133540       542.831147426         2.540393957         4.858527497         0.186589213
        30            3.000000         2.300934140       538.803609916         2.557611559         4.858545699         0.155837718
        31            3.100000         2.285834022       535.267655452         2.572728078         4.858562100         0.161766171
        32            3.200000         2.273098933       532.285513605         2.585477584         4.858576516         0.174410945
        33            3.300000         2.262962716       529.911942744         2.595626028         4.858588744         0.161500366
        34            3.400000         2.255624110       528.193481061         2.602974490         4.858598600         0.174768694
        35            3.500000         2.251243968       527.167794845         2.607361980         4.858605948         0.161702678
        36            3.600000         2.249942988       526.863147903         2.608667692         4.858610680         0.174910564
        37            3.700000         2.251799988       527.297996565         2.606812722         4.858612710         0.161874611
        38            3.800000         2.256850719       528.480712671         2.601761311         4.858612029         0.201447146
        39            3.900000         2.265087217       530.409431525         2.593521395         4.858608612         0.192628540
        40            4.000000         2.276457765       533.072042368         2.582144739         4.858602503         0.193641251
        41            4.100000         2.290867389       536.446305701         2.567726374         4.858593763         0.192893928
        42            4.200000         2.308178917       540.500099919         2.550403576         4.858582493         0.158005308
        43            4.300000         2.328214601       545.191802653         2.530354228         4.858568829         0.160008777
        44            4.400000         2.350758308       550.470802388         2.507794625         4.858552933         0.178110562
        45            4.500000         2.375558128       556.278110024         2.482976858         4.858534986         0.160454633
        46            4.600000         2.402329335       562.547052276         2.456185874         4.858515210         0.158893205
        47            4.700000         2.430757734       569.204054611         2.427736059         4.858493794         0.178881625
        48            4.800000         2.460503023       576.169429505         2.397967896         4.858470919         0.161739279
        49            4.900000         2.491201583       583.358029567         2.367245036         4.858446620         0.159630688
        50            5.000000         2.522467659       590.679523071         2.335952979         4.858420638         0.185031459
        51            5.100000         2.554924953       598.279960947         2.303468372         4.858393325         0.201514173
        52            5.200000         2.586005676       605.558050963         2.272366034         4.858371710         0.174956596
        53            5.300000         2.616603423       612.723043809         2.241741018         4.858344441         0.157461450
        54            5.400000         2.646308588       619.679023030         2.212008630         4.858317218         0.171918843
        55            5.500000         2.674704830       626.328495209         2.183587793         4.858292623         0.161970332
        56            5.600000         2.701403417       632.580432145         2.156866708         4.858270124         0.174513264
        57            5.700000         2.726045627       638.350832712         2.132203826         4.858249453         0.169588508
        58            5.800000         2.748300900       643.562290720         2.109929780         4.858230680         0.160729231
        59            5.900000         2.767868035       648.144274507         2.090345909         4.858213944         0.161268899
        60            6.000000         2.784477837       652.033747574         2.073721571         4.858199408         0.176989440
        61            6.100000         2.797896072       655.175859817         2.060291192         4.858187264         0.153073022
        62            6.200000         2.807926312       657.524614348         2.050251349         4.858177661         0.177663103
        63            6.300000         2.814412424       659.043449957         2.043758293         4.858170717         0.160952464
        64            6.400000         2.817240587       659.705713255         2.040925945         4.858166532         0.160783930
        65            6.500000         2.816340812       659.495015336         2.041824344         4.858165156         0.173569452
        66            6.600000         2.811687908       658.405457272         2.046478720         4.858166628         0.161774319
        67            6.700000         2.803301916       656.441731896         2.054869019         4.858170935         0.355419042
        68            6.800000         2.791247958       653.619088793         2.066930074         4.858178033         0.172807800
        69            6.900000         2.775635543       649.963171109         2.082552301         4.858187844         0.159650037
        70            7.000000         2.756617310       645.509722272         2.101582934         4.858200244         0.175427100
        71            7.100000         2.734387250       640.304168324         2.123827840         4.858215090         0.153628234
        72            7.200000         2.709178388       634.401076407         2.149053833         4.858232221         0.165996380
        73            7.300000         2.681259942       627.863488483         2.176991467         4.858251410         0.158628706
        74            7.400000         2.650934087       620.762163755         2.207338343         4.858272429         0.173794635
        75            7.500000         2.618532281       613.174719362         2.239762746         4.858295027         0.160881238
        76            7.600000         2.584411215       605.184680335         2.273907725         4.858318940         0.160435257
        77            7.700000         2.548948479       596.880466109         2.309395391         4.858343870         0.171215577
        78            7.800000         2.512537963       588.354312664         2.345831550         4.858369513         0.159179136
        79            7.900000         2.475585048       579.701147118         2.382810510         4.858395558         0.159808684
        80            8.000000         2.438501636       571.017423332         2.419920051         4.858421686         0.174196724
        81            8.100000         2.401701132       562.399947501         2.456746469         4.858447600         0.172274131
        82            8.200000         2.365593406       553.944697778         2.492879569         4.858472976         0.160607681
        83            8.300000         2.330579790       545.745652714         2.527917705         4.858497496         0.125658011
        84            8.400000         2.297048177       537.893644339         2.561472692         4.858520870         0.161568899
        85            8.500000         2.265368279       530.475247108         2.593174541         4.858542820         0.147071993
        86            8.600000         2.235887185       523.571737949         2.622675885         4.858563070         0.124348808
        87            8.700000         2.208925129       517.258105165         2.649656259         4.858581388         0.091054084
        88            8.800000         2.184771625       511.602143512         2.673825927         4.858597552         0.140759101
        89            8.900000         2.163681993       506.663640794         2.694929385         4.858611379         0.103756975
        90            9.000000         2.145874288       502.493657965         2.712748412         4.858622700         0.114310617
        91            9.100000         2.131526742       499.133931330         2.727104639         4.858631380         0.134229718
        92            9.200000         2.120775647       496.616376022         2.737861684         4.858637330         0.091240246
        93            9.300000         2.113713778       494.962717096         2.744926693         4.858640471         0.124267068
        94            9.400000         2.110389414       494.184259608         2.748251372         4.858640785         0.097145675
        95            9.500000         2.110805823       494.281769135         2.747832450         4.858638273         0.132185053
        96            9.600000         2.114921358       495.245492902         2.743711615         4.858632973         0.195405265
        97            9.700000         2.122650094       497.055310440         2.735974875         4.858624969         0.198162127
        98            9.800000         2.133863035       499.681014909         2.724751327         4.858614362         0.100107607
        99            9.900000         2.148389880       503.082727335         2.710211411         4.858601291         0.130622959
       100           10.000000         2.166021259       507.211420373         2.692564668         4.858585927         0.121909091
       101           10.100000         2.186511469       512.009558271         2.672057006         4.858568475         0.104812015
       102           10.200000         2.209581646       517.411840075         2.648967513         4.858549159         0.184613660
       103           10.300000         2.234923342       523.346037375         2.623604870         4.858528212         0.120386057
       104           10.400000         2.262202500       529.733924945         2.596303430         4.858505930         0.124424040
       105           10.500000         2.291063705       536.492276511         2.567418855         4.858482560         0.087883124
       106           10.600000         2.321134705       543.533922219         2.537323728         4.858458433         0.131009633
       107           10.700000         2.352031119       550.768853174         2.506402708         4.858433827         0.087997539
       108           10.800000         2.383361314       558.105361372         2.475047744         4.858409058         0.165964363
       109           10.900000         2.414731347       565.451198172         2.443653099         4.858384446         0.139043668
       110           11.000000         2.445749942       572.714739829         2.412610360         4.858360301         0.170917075
       111           11.100000         2.476033375       579.806130559         2.382303543         4.858336918         0.092371501
       112           11.200000         2.505210254       586.638402641         2.353104314         4.858314568         0.162817245
       113           11.300000         2.532926220       593.128576454         2.325367319         4.858293539         0.186559794
       114           11.400000         2.558848302       599.198681238         2.299425800         4.858274102         0.117109092
       115           11.500000         2.582669025       604.776716414         2.275587468         4.858256493         0.178759430
       116           11.600000         2.604110221       609.797543938         2.254130713         4.858240933         0.152266160
       117           11.700000         2.622926414       614.203681783         2.235301167         4.858227581         0.112936618
       118           11.800000         2.638907788       617.945997445         2.219308813         4.858216601         0.196160989
       119           11.900000         2.651882667       620.984290368         2.206325460         4.858208127         0.112714384
       120           12.000000         2.661719533       623.287762999         2.196482715         4.858202249         0.141193584
       121           12.100000         2.668328501       624.835367396         2.189870526         4.858199027         0.079335677
       122           12.200000         2.671662269       625.616027030         2.186536209         4.858198478         0.165390316
       123           12.300000         2.671716508       625.628728037         2.186484101         4.858200610         0.148199504
       124           12.400000         2.668529738       624.882490494         2.189675625         4.858205363         0.079472156
       125           12.500000         2.662182625       623.396204087         2.196030063         4.858212688         0.079898996
       126           12.600000         2.652796677       621.198321631         2.205425758         4.858222435         0.132306743
       127           12.700000         2.640532552       618.326464118         2.217701942         4.858234494         0.165830903
       128           12.800000         2.625587781       614.826886962         2.232660903         4.858248684         0.102828898
       129           12.900000         2.608193981       610.753827244         2.250070824         4.858264805         0.080813682
       130           13.000000         2.588613700       606.168764997         2.269668937         4.858282637         0.098550927
       131           13.100000         2.567136860       601.139590785         2.291165080         4.858301940         0.116662757
       132           13.200000         2.544076822       595.739683143         2.314245627         4.858322449         0.116930012
       133           13.300000         2.519766202       590.046930094         2.338577668         4.858343870         0.153881738
       134           13.400000         2.494552482       584.142700475         2.363813469         4.858365951         0.118824661
       135           13.500000         2.468793344       578.110751831         2.389595016         4.858388360         0.129799236
       136           13.600000         2.442851908       572.036115065         2.415558911         4.858410819         0.157326687
       137           13.700000         2.417091954       566.003975261         2.441341065         4.858433019         0.164187627
       138           13.800000         2.391873093       560.098541829         2.466581578         4.858454670         0.158625895
       139           13.900000         2.367545971       554.401924632         2.490929495         4.858475466         0.103390448
       140           14.000000         2.344447685       548.993060533         2.514047454         4.858495138         0.134299597
       141           14.100000         2.322897354       543.946677067         2.535616081         4.858513435         0.079698818
       142           14.200000         2.303191945       539.332313935         2.555338163         4.858530107         0.081207385
       143           14.300000         2.285602350       535.213405532         2.572942589         4.858544939         0.081520371
       144           14.400000         2.270369808       531.646441855         2.588187914         4.858557722         0.080639929
       145           14.500000         2.257702762       528.680233297         2.600865535         4.858568297         0.080322923
       146           14.600000         2.247774094       526.355263599         2.610802423         4.858576517         0.081214560
       147           14.700000         2.240718896       524.703166889         2.617863373         4.858582269         0.080257576
       148           14.800000         2.236632747       523.746324075         2.621952734         4.858585481         0.169996737
       149           14.900000         2.235570416       523.497560906         2.623015689         4.858586105         0.080878664
       150           15.000000         2.237545175       523.959985137         2.621038965         4.858584140         0.080221133
       151           15.100000         2.242528675       525.126957912         2.616050937         4.858579612         0.079972068
       152           15.200000         2.250451314       526.982181121         2.608121258         4.858572572         0.079900956
       153           15.300000         2.261203199       529.499921291         2.597359931         4.858563130         0.080342263
       154           15.400000         2.274635607       532.645352611         2.583915793         4.858551400         0.080250559
       155           15.500000         2.290562970       536.375020576         2.567974565         4.858537534         0.080576343
       156           15.600000         2.308765379       540.637430235         2.549756343         4.858521722         0.080481179
       157           15.700000         2.328991477       545.373721566         2.529512682         4.858504159         0.080250993
       158           15.800000         2.350961761       550.518444364         2.507523326         4.858485086         0.080284487
       159           15.900000         2.374372286       556.000424507         2.484092484         4.858464769         0.159351129
       160           16.000000         2.398898715       561.743713107         2.459544747         4.858443462         0.130573127
       161           16.100000         2.424200610       567.668590420         2.434220825         4.858421435         0.119555203
       162           16.200000         2.449925956       573.692626013         2.408473043         4.858398999         0.106396571
       163           16.300000         2.475715807       579.731766638         2.382660657         4.858376464         0.159299782
       164           16.400000         2.501208945       585.701426809         2.357145147         4.858354093         0.131819144
       165           16.500000         2.526046760       591.517631711         2.332285420         4.858332181         0.114529049
       166           16.600000         2.549878004       597.098130464         2.308433029         4.858311033         0.107342394
       167           16.700000         2.572363326       602.363458346         2.285927651         4.858290977         0.157470407
       168           16.800000         2.593179781       607.237992138         2.265092384         4.858272165         0.137358235
       169           16.900000         2.612025158       611.650963655         2.246229780         4.858254938         0.145048246
       170           17.000000         2.628621915       615.537381936         2.229617623         4.858239538         0.118189663
       171           17.100000         2.642720882       618.838899531         2.215505251         4.858226133         0.149463983
       172           17.200000         2.654104595       621.504593153         2.204110315         4.858214910         0.165705552
       173           17.300000         2.662590171       623.491637990         2.195615841         4.858206012         0.147721896
       174           17.400000         2.668031816       624.765893390         2.190167754         4.858199570         0.155456813
       175           17.500000         2.670322771       625.302360280         2.187872908         4.858195680         0.108046008
       176           17.600000         2.669396861       625.085542351         2.188797534         4.858194395         0.109330023
       177           17.700000         2.665229491       624.109680488         2.192966253         4.858195744         0.080396606
       178           17.800000         2.657838045       622.378845238         2.200361627         4.858199672         0.131916426
       179           17.900000         2.647281856       619.906930728         2.210924386         4.858206242         0.167989261
       180           18.000000         2.633661635       616.717519897         2.224553699         4.858215334         0.155376397
       181           18.100000         2.617118288       612.843608492         2.241108548         4.858226836         0.093615524
       182           18.200000         2.597831263       608.327217095         2.260409325         4.858240588         0.157753762
       183           18.300000         2.576016443       603.218898992         2.282240066         4.858256509         0.150393158
       184           18.400000         2.551923488       597.577115885         2.306350872         4.858274359         0.130974233
       185           18.500000         2.525832824       591.467534828         2.332461100         4.858293925         0.080209488
       186           18.600000         2.498052245       584.962230713         2.360262734         4.858314979         0.079916272
       187           18.700000         2.468913156       578.138807850         2.389424108         4.858337264         0.080125516
       188           18.800000         2.438766624       571.079475084         2.419593893         4.858360517         0.079787103
       189           18.900000         2.407979078       563.870037450         2.450405400         4.858384478         0.079771977
       190           19.000000         2.376927862       556.598856990         2.481481000         4.858408862         0.080613177
       191           19.100000         2.345996469       549.355735185         2.512436816         4.858433284         0.067527488
       192           19.200000         2.315569077       542.230633978         2.542888267         4.858457344         0.043071905
       193           19.300000         2.286024630       535.312289789         2.572456022         4.858480653         0.043004800
       194           19.400000         2.257731325       528.686922022         2.600771611         4.858502937         0.043180093
       195           19.500000         2.231042299       522.437224010         2.627481751         4.858524051         0.042999260
       196           19.600000         2.206292333       516.641590362         2.652251480         4.858543812         0.043092346
       197           19.700000         2.183794606       511.373357586         2.674767395         4.858562000         0.042880578
       198           19.800000         2.163837096       506.699960691         2.694741287         4.858578383         0.042840311
       199           19.900000         2.146678833       502.682056180         2.711913905         4.858592738         0.042871753
       200           20.000000         2.132546478       499.372720193         2.726058396         4.858604874         0.042866511
