     248
 i =        0, time =        0.000, E =         0.4880023251
 Ne       -12.0000000000      -12.0000000000      -12.0000000000
 Ne       -12.0000000000      -12.0000000000        0.0000000000
  C         0.0000326559       -0.7100016306        2.4253201198
  C        -0.0017253656       -1.4075102976        1.2375147617
  C         0.0001258030       -0.7105893456       -0.0035729709
  C         0.0030015302       -1.4012106031       -1.2483440377
  C         0.0017874501        0.7005806235        2.4332966517
  H         0.0169896706       -1.1827235737        3.2835161488
  H        -0.0117873607       -2.3657237260        1.2128818204
  H        -0.0045414502       -2.3484707172       -1.2332317973
  H        -0.0090580484        1.1996123401        3.2877717660
  C        -0.0001258030        0.7105893456        0.0035729709
  C        -0.0017874501       -0.7005806235       -2.4332966517
  C        -0.0030015302        1.4012106031        1.2483440377
  C         0.0017253656        1.4075102976       -1.2375147617
  C        -0.0000326559        0.7100016306       -2.4253201198
  H         0.0090580484       -1.1996123401       -3.2877717660
  H         0.0045414502        2.3484707172        1.2332317973
  H         0.0117873607        2.3657237260       -1.2128818204
  H        -0.0169896706        1.1827235737       -3.2835161488
  C         5.0000326559       -0.7100016306        2.4253201198
  C         4.9982746344       -1.4075102976        1.2375147617
  C         5.0001258030       -0.7105893456       -0.0035729709
  C         5.0030015302       -1.4012106031       -1.2483440377
  C         5.0017874501        0.7005806235        2.4332966517
  H         5.0169896706       -1.1827235737        3.2835161488
  H         4.9882126393       -2.3657237260        1.2128818204
  H         4.9954585498       -2.3484707172       -1.2332317973
  H         4.9909419516        1.1996123401        3.2877717660
  C         4.9998741970        0.7105893456        0.0035729709
  C         4.9982125499       -0.7005806235       -2.4332966517
  C         4.9969984698        1.4012106031        1.2483440377
  C         5.0017253656        1.4075102976       -1.2375147617
  C         4.9999673441        0.7100016306       -2.4253201198
  H         5.0090580484       -1.1996123401       -3.2877717660
  H         5.0045414502        2.3484707172        1.2332317973
  H         5.0117873607        2.3657237260       -1.2128818204
  H         4.9830103294        1.1827235737       -3.2835161488
  C        10.0000326559       -0.7100016306        2.4253201198
  C         9.9982746344       -1.4075102976        1.2375147617
  C        10.0001258030       -0.7105893456       -0.0035729709
  C        10.0030015302       -1.4012106031       -1.2483440377
  C        10.0017874501        0.7005806235        2.4332966517
  H        10.0169896706       -1.1827235737        3.2835161488
  H         9.9882126393       -2.3657237260        1.2128818204
  H         9.9954585498       -2.3484707172       -1.2332317973
  H         9.9909419516        1.1996123401        3.2877717660
  C         9.9998741970        0.7105893456        0.0035729709
  C         9.9982125499       -0.7005806235       -2.4332966517
  C         9.9969984698        1.4012106031        1.2483440377
  C        10.0017253656        1.4075102976       -1.2375147617
  C         9.9999673441        0.7100016306       -2.4253201198
  H        10.0090580484       -1.1996123401       -3.2877717660
  H        10.0045414502        2.3484707172        1.2332317973
  H        10.0117873607        2.3657237260       -1.2128818204
  H         9.9830103294        1.1827235737       -3.2835161488
  C        14.9959517291       -0.7068229762        3.6510116258
  C        14.9937722923       -1.4217923192        2.4780584773
  C        15.0029362797       -0.7148462730        1.2165505268
  C        15.0028545736       -1.4110565931       -0.0102050249
  C        15.0010284642        0.7083153509        1.2235041095
  C        15.0117201135        1.4024630468        2.4847295711
  C        15.0131292136        0.7038460116        3.6529967719
  H        15.0582874962       -1.3573717727        4.5780167582
  H        14.9442796539       -2.5647699230        2.4197345898
  H        15.0293891512       -2.5266879968       -0.0042479061
  H        14.9267021518        2.5254739458        2.4261679197
  H        14.8746980013        1.4789932255        4.5424851621
  C        14.9989715358       -0.7083153509       -1.2235041095
  C        14.9971454264        1.4110565931        0.0102050249
  C        14.9970637203        0.7148462730       -1.2165505268
  C        14.9882798865       -1.4024630468       -2.4847295711
  H        14.9706108488        2.5266879968        0.0042479061
  C        15.0062277077        1.4217923192       -2.4780584773
  C        14.9868707864       -0.7038460116       -3.6529967719
  H        15.0732978482       -2.5254739458       -2.4261679197
  C        15.0040482709        0.7068229762       -3.6510116258
  H        15.0557203461        2.5647699230       -2.4197345898
  H        15.1253019987       -1.4789932255       -4.5424851621
  H        14.9417125038        1.3573717727       -4.5780167582
  C        19.9959517291       -0.7068229762        3.6510116258
  C        19.9937722923       -1.4217923192        2.4780584773
  C        20.0029362797       -0.7148462730        1.2165505268
  C        20.0028545736       -1.4110565931       -0.0102050249
  C        20.0010284642        0.7083153509        1.2235041095
  C        20.0117201135        1.4024630468        2.4847295711
  C        20.0131292136        0.7038460116        3.6529967719
  H        20.0582874962       -1.3573717727        4.5780167582
  H        19.9442796539       -2.5647699230        2.4197345898
  H        20.0293891512       -2.5266879968       -0.0042479061
  H        19.9267021518        2.5254739458        2.4261679197
  H        19.8746980013        1.4789932255        4.5424851621
  C        19.9989715358       -0.7083153509       -1.2235041095
  C        19.9971454264        1.4110565931        0.0102050249
  C        19.9970637203        0.7148462730       -1.2165505268
  C        19.9882798865       -1.4024630468       -2.4847295711
  H        19.9706108488        2.5266879968        0.0042479061
  C        20.0062277077        1.4217923192       -2.4780584773
  C        19.9868707864       -0.7038460116       -3.6529967719
  H        20.0732978482       -2.5254739458       -2.4261679197
  C        20.0040482709        0.7068229762       -3.6510116258
  H        20.0557203461        2.5647699230       -2.4197345898
  H        20.1253019987       -1.4789932255       -4.5424851621
  H        19.9417125038        1.3573717727       -4.5780167582
  C        24.9959517291       -0.7068229762        3.6510116258
  C        24.9937722923       -1.4217923192        2.4780584773
  C        25.0029362797       -0.7148462730        1.2165505268
  C        25.0028545736       -1.4110565931       -0.0102050249
  C        25.0010284642        0.7083153509        1.2235041095
  C        25.0117201135        1.4024630468        2.4847295711
  C        25.0131292136        0.7038460116        3.6529967719
  H        25.0582874962       -1.3573717727        4.5780167582
  H        24.9442796539       -2.5647699230        2.4197345898
  H        25.0293891512       -2.5266879968       -0.0042479061
  H        24.9267021518        2.5254739458        2.4261679197
  H        24.8746980013        1.4789932255        4.5424851621
  C        24.9989715358       -0.7083153509       -1.2235041095
  C        24.9971454264        1.4110565931        0.0102050249
  C        24.9970637203        0.7148462730       -1.2165505268
  C        24.9882798865       -1.4024630468       -2.4847295711
  H        24.9706108488        2.5266879968        0.0042479061
  C        25.0062277077        1.4217923192       -2.4780584773
  C        24.9868707864       -0.7038460116       -3.6529967719
  H        25.0732978482       -2.5254739458       -2.4261679197
  C        25.0040482709        0.7068229762       -3.6510116258
  H        25.0557203461        2.5647699230       -2.4197345898
  H        25.1253019987       -1.4789932255       -4.5424851621
  H        24.9417125038        1.3573717727       -4.5780167582
 Ne       -12.0000000000      -12.0000000000       12.0000000000
 Ne       -12.0000000000      -12.0000000000       24.0000000000
 Ne       -12.0000000000      -12.0000000000       36.0000000000
 Ne       -12.0000000000        0.0000000000      -12.0000000000
 Ne       -12.0000000000        0.0000000000        0.0000000000
 Ne       -12.0000000000        0.0000000000       12.0000000000
 Ne       -12.0000000000        0.0000000000       24.0000000000
 Ne       -12.0000000000        0.0000000000       36.0000000000
 Ne       -12.0000000000       12.0000000000      -12.0000000000
 Ne       -12.0000000000       12.0000000000        0.0000000000
 Ne       -12.0000000000       12.0000000000       12.0000000000
 Ne       -12.0000000000       12.0000000000       24.0000000000
 Ne       -12.0000000000       12.0000000000       36.0000000000
 Ne       -12.0000000000       24.0000000000      -12.0000000000
 Ne       -12.0000000000       24.0000000000        0.0000000000
 Ne       -12.0000000000       24.0000000000       12.0000000000
 Ne       -12.0000000000       24.0000000000       24.0000000000
 Ne       -12.0000000000       24.0000000000       36.0000000000
 Ne       -12.0000000000       36.0000000000      -12.0000000000
 Ne       -12.0000000000       36.0000000000        0.0000000000
 Ne       -12.0000000000       36.0000000000       12.0000000000
 Ne       -12.0000000000       36.0000000000       24.0000000000
 Ne       -12.0000000000       36.0000000000       36.0000000000
 Ne         0.0000000000      -12.0000000000      -12.0000000000
 Ne         0.0000000000      -12.0000000000        0.0000000000
 Ne         0.0000000000      -12.0000000000       12.0000000000
 Ne         0.0000000000      -12.0000000000       24.0000000000
 Ne         0.0000000000      -12.0000000000       36.0000000000
 Ne         0.0000000000        0.0000000000      -12.0000000000
 Ne         0.0000000000        0.0000000000       12.0000000000
 Ne         0.0000000000        0.0000000000       24.0000000000
 Ne         0.0000000000        0.0000000000       36.0000000000
 Ne         0.0000000000       12.0000000000      -12.0000000000
 Ne         0.0000000000       12.0000000000        0.0000000000
 Ne         0.0000000000       12.0000000000       12.0000000000
 Ne         0.0000000000       12.0000000000       24.0000000000
 Ne         0.0000000000       12.0000000000       36.0000000000
 Ne         0.0000000000       24.0000000000      -12.0000000000
 Ne         0.0000000000       24.0000000000        0.0000000000
 Ne         0.0000000000       24.0000000000       12.0000000000
 Ne         0.0000000000       24.0000000000       24.0000000000
 Ne         0.0000000000       24.0000000000       36.0000000000
 Ne         0.0000000000       36.0000000000      -12.0000000000
 Ne         0.0000000000       36.0000000000        0.0000000000
 Ne         0.0000000000       36.0000000000       12.0000000000
 Ne         0.0000000000       36.0000000000       24.0000000000
 Ne         0.0000000000       36.0000000000       36.0000000000
 Ne        12.0000000000      -12.0000000000      -12.0000000000
 Ne        12.0000000000      -12.0000000000        0.0000000000
 Ne        12.0000000000      -12.0000000000       12.0000000000
 Ne        12.0000000000      -12.0000000000       24.0000000000
 Ne        12.0000000000      -12.0000000000       36.0000000000
 Ne        12.0000000000        0.0000000000      -12.0000000000
 Ne        12.0000000000        0.0000000000       12.0000000000
 Ne        12.0000000000        0.0000000000       24.0000000000
 Ne        12.0000000000        0.0000000000       36.0000000000
 Ne        12.0000000000       12.0000000000      -12.0000000000
 Ne        12.0000000000       12.0000000000        0.0000000000
 Ne        12.0000000000       12.0000000000       12.0000000000
 Ne        12.0000000000       12.0000000000       24.0000000000
 Ne        12.0000000000       12.0000000000       36.0000000000
 Ne        12.0000000000       24.0000000000      -12.0000000000
 Ne        12.0000000000       24.0000000000        0.0000000000
 Ne        12.0000000000       24.0000000000       12.0000000000
 Ne        12.0000000000       24.0000000000       24.0000000000
 Ne        12.0000000000       24.0000000000       36.0000000000
 Ne        12.0000000000       36.0000000000      -12.0000000000
 Ne        12.0000000000       36.0000000000        0.0000000000
 Ne        12.0000000000       36.0000000000       12.0000000000
 Ne        12.0000000000       36.0000000000       24.0000000000
 Ne        12.0000000000       36.0000000000       36.0000000000
 Ne        24.0000000000      -12.0000000000      -12.0000000000
 Ne        24.0000000000      -12.0000000000        0.0000000000
 Ne        24.0000000000      -12.0000000000       12.0000000000
 Ne        24.0000000000      -12.0000000000       24.0000000000
 Ne        24.0000000000      -12.0000000000       36.0000000000
 Ne        24.0000000000        0.0000000000      -12.0000000000
 Ne        24.0000000000        0.0000000000       12.0000000000
 Ne        24.0000000000        0.0000000000       24.0000000000
 Ne        24.0000000000        0.0000000000       36.0000000000
 Ne        24.0000000000       12.0000000000      -12.0000000000
 Ne        24.0000000000       12.0000000000        0.0000000000
 Ne        24.0000000000       12.0000000000       12.0000000000
 Ne        24.0000000000       12.0000000000       24.0000000000
 Ne        24.0000000000       12.0000000000       36.0000000000
 Ne        24.0000000000       24.0000000000      -12.0000000000
 Ne        24.0000000000       24.0000000000        0.0000000000
 Ne        24.0000000000       24.0000000000       12.0000000000
 Ne        24.0000000000       24.0000000000       24.0000000000
 Ne        24.0000000000       24.0000000000       36.0000000000
 Ne        24.0000000000       36.0000000000      -12.0000000000
 Ne        24.0000000000       36.0000000000        0.0000000000
 Ne        24.0000000000       36.0000000000       12.0000000000
 Ne        24.0000000000       36.0000000000       24.0000000000
 Ne        24.0000000000       36.0000000000       36.0000000000
 Ne        36.0000000000      -12.0000000000      -12.0000000000
 Ne        36.0000000000      -12.0000000000        0.0000000000
 Ne        36.0000000000      -12.0000000000       12.0000000000
 Ne        36.0000000000      -12.0000000000       24.0000000000
 Ne        36.0000000000      -12.0000000000       36.0000000000
 Ne        36.0000000000        0.0000000000      -12.0000000000
 Ne        36.0000000000        0.0000000000        0.0000000000
 Ne        36.0000000000        0.0000000000       12.0000000000
 Ne        36.0000000000        0.0000000000       24.0000000000
 Ne        36.0000000000        0.0000000000       36.0000000000
 Ne        36.0000000000       12.0000000000      -12.0000000000
 Ne        36.0000000000       12.0000000000        0.0000000000
 Ne        36.0000000000       12.0000000000       12.0000000000
 Ne        36.0000000000       12.0000000000       24.0000000000
 Ne        36.0000000000       12.0000000000       36.0000000000
 Ne        36.0000000000       24.0000000000      -12.0000000000
 Ne        36.0000000000       24.0000000000        0.0000000000
 Ne        36.0000000000       24.0000000000       12.0000000000
 Ne        36.0000000000       24.0000000000       24.0000000000
 Ne        36.0000000000       24.0000000000       36.0000000000
 Ne        36.0000000000       36.0000000000      -12.0000000000
 Ne        36.0000000000       36.0000000000        0.0000000000
 Ne        36.0000000000       36.0000000000       12.0000000000
 Ne        36.0000000000       36.0000000000       24.0000000000
 Ne        36.0000000000       36.0000000000       36.0000000000
     248
 i =      200, time =       20.000, E =         0.2114314089
 Ne       -12.0000000000      -12.0000000000      -12.0000000000
 Ne       -12.0000000000      -12.0000000000        0.0000000000
  C         0.0019325613       -0.7292034291        2.4487075367
  C         0.0007647681       -1.4289301311        1.2403903346
  C         0.0008168595       -0.7208904240       -0.0001801980
  C         0.0012137348       -1.4279866093       -1.2434379651
  C         0.0010352860        0.7117433500        2.4530950116
  H        -0.0074044163       -1.2566572657        3.3719891188
  H         0.0070887917       -2.4843181523        1.1931283930
  H         0.0075300433       -2.4821767008       -1.2009071445
  H         0.0082316216        1.2474240897        3.3745595716
  C         0.0019590642        0.7208898791        0.0001807592
  C         0.0012933294       -0.7117428779       -2.4530954659
  C         0.0014078985        1.4279870364        1.2434383210
  C         0.0018567423        1.4289289022       -1.2403909249
  C         0.0003955317        0.7292037810       -2.4487082079
  H        -0.0051456441       -1.2474273441       -3.3745653609
  H        -0.0041878291        2.4821819528        1.2009072670
  H        -0.0037469071        2.4843216972       -1.1931289946
  H         0.0104856798        1.2566527143       -3.3719827298
  C         5.0007745885       -0.7291781431        2.4488239559
  C         4.9994538361       -1.4287768726        1.2404499801
  C         4.9994224171       -0.7207789517       -0.0001792404
  C         4.9999099147       -1.4278346149       -1.2434943108
  C         4.9998745439        0.7117185827        2.4532095165
  H         4.9911474169       -1.2568738083        3.3719380778
  H         5.0054877837       -2.4841195745        1.1932492560
  H         5.0059387319       -2.4819786858       -1.2010238120
  H         5.0067911497        1.2476457214        3.3745233737
  C         5.0005644385        0.7207788796        0.0001792409
  C         5.0001316084       -0.7117184919       -2.4532094478
  C         5.0000984593        1.4278346064        1.2434943709
  C         5.0005544169        1.4287767528       -1.2404500892
  C         4.9992313499        0.7291782013       -2.4488241686
  H         4.9933932603       -1.2476460519       -3.3745240188
  H         4.9942057063        2.4819793590        1.2010239920
  H         4.9946554477        2.4841201037       -1.1932492717
  H         5.0090362383        1.2568731226       -3.3719370817
  C        10.0016420498       -0.7261806444        2.4735067478
  C        10.0002001478       -1.4274148182        1.2473112366
  C         9.9993841785       -0.7189550424       -0.0001244424
  C        10.0008722644       -1.4264419965       -1.2502545406
  C        10.0007098550        0.7087452735        2.4779174573
  H        10.0127258238       -1.2406374914        3.4038052137
  H        10.0224037771       -2.4802151993        1.1889324294
  H        10.0231583264       -2.4780623140       -1.1965146484
  H        10.0286024148        1.2310445885        3.4063542721
  C        10.0004627128        0.7189445523        0.0001249022
  C        10.0008949804       -0.7087317040       -2.4779081442
  C        10.0008036081        1.4264310180        1.2502632790
  C        10.0014463203        1.4273845084       -1.2473346241
  C         9.9999342143        0.7261909437       -2.4735520860
  H        10.0148341376       -1.2311470015       -3.4066520715
  H        10.0112058803        2.4782658029        1.1965752327
  H        10.0118127561        2.4804011653       -1.1889077768
  H        10.0303660626        1.2404529552       -3.4034534761
  C        14.9958104045       -0.7004416773        3.6840421089
  C        15.0000567375       -1.4004316130        2.4795367540
  C        15.0045336345       -0.7104042056        1.2106629772
  C        14.9974592953       -1.4210224054        0.0015875706
  C        15.0047880937        0.7088942960        1.2048132989
  C        14.9900888492        1.4067721096        2.4779569166
  C        14.9898812206        0.6757567893        3.6914778268
  H        14.9793252849       -1.2793956802        4.6171665064
  H        15.0187192257       -2.4970574719        2.3874844134
  H        14.9871146629       -2.5140728558        0.0074736460
  H        15.0823443143        2.4978790740        2.3743698891
  H        15.0981645999        1.3189501585        4.6139192476
  C        14.9975099180       -0.7088793593       -1.2048004523
  C        14.9942343142        1.4210220627       -0.0015490921
  C        14.9977430261        0.7104063334       -1.2106152885
  C        15.0064555362       -1.4067001752       -2.4779433893
  H        15.0207819512        2.5138603435       -0.0074605506
  C        14.9964254879        1.4004312207       -2.4795699133
  C        15.0062307635       -0.6756506116       -3.6913991199
  H        14.9308632159       -2.4990494900       -2.3745697488
  C        15.0002734763        0.7004754283       -3.6840548473
  H        14.9943597730        2.4971502854       -2.3874627816
  H        14.9204189093       -1.3198026081       -4.6153830302
  H        15.0386919691        1.2791031999       -4.6166741093
  C        19.9976508559       -0.7036472668        3.6641845787
  C        20.0017296574       -1.4050077376        2.4750714248
  C        20.0033156654       -0.7103796493        1.2094698155
  C        20.0014634668       -1.4118471527        0.0014703380
  C        20.0036452708        0.7091886070        1.2038705417
  C        19.9918266816        1.4115070089        2.4736535059
  C        19.9919677791        0.6784400862        3.6716371195
  H        19.9698568492       -1.2943087347        4.5895881841
  H        20.0122686635       -2.5054781755        2.4011009380
  H        19.9830024182       -2.5049635004        0.0072220471
  H        20.0754235962        2.5074006824        2.3879479599
  H        20.0892581431        1.3350724427        4.5855828000
  C        19.9963590563       -0.7091885737       -1.2038705489
  C        19.9985216580        1.4118470999       -0.0014702773
  C        19.9966885963        0.7103797166       -1.2094698037
  C        20.0081658335       -1.4115070137       -2.4736535973
  H        20.0169953954        2.5049637856       -0.0072219297
  C        19.9982626634        1.4050077990       -2.4750716814
  C        20.0080201232       -0.6784398194       -3.6716370809
  H        19.9246036581       -2.5074028148       -2.3879483227
  C        20.0023366299        0.7036473456       -3.6641845274
  H        19.9877569721        2.5054781052       -2.4011006328
  H        19.9107828825       -1.3350742032       -4.5855855527
  H        20.0301834335        1.2943082131       -4.5895876765
  C        24.9964879955       -0.7036928881        3.6642478273
  C        25.0004012185       -1.4051477573        2.4751850387
  C        25.0018047676       -0.7104530395        1.2095557246
  C        24.9998816727       -1.4119388540        0.0014685109
  C        25.0021306649        0.7092615744        1.2039577762
  C        24.9904898412        1.4116459681        2.4737680039
  C        24.9908173115        0.6784792416        3.6717049299
  H        24.9683481052       -1.2941880617        4.5897400803
  H        25.0105456679       -2.5056647864        2.4011239435
  H        24.9811325333       -2.5050718351        0.0072206104
  H        25.0736821108        2.5076152576        2.3879705364
  H        25.0876790447        1.3349768398        4.5857542851
  C        24.9948614446       -0.7092631351       -1.2039616424
  C        24.9969586916        1.4119362836       -0.0014697315
  C        24.9951911680        0.7104528129       -1.2095589796
  C        25.0068243230       -1.4116497255       -2.4737692334
  H        25.0151282733        2.5050781881       -0.0072183753
  C        24.9969196657        1.4051499569       -2.4751842808
  C        25.0068587340       -0.6784850070       -3.6717073202
  H        24.9228580420       -2.5075591566       -2.3879662109
  C        25.0011934198        0.7036911184       -3.6642497159
  H        24.9860097645        2.5056609951       -2.4011240885
  H        24.9092148478       -1.3349376751       -4.5857077862
  H        25.0285685902        1.2942015002       -4.5897561034
 Ne       -12.0000000000      -12.0000000000       12.0000000000
 Ne       -12.0000000000      -12.0000000000       24.0000000000
 Ne       -12.0000000000      -12.0000000000       36.0000000000
 Ne       -12.0000000000        0.0000000000      -12.0000000000
 Ne       -12.0000000000        0.0000000000        0.0000000000
 Ne       -12.0000000000        0.0000000000       12.0000000000
 Ne       -12.0000000000        0.0000000000       24.0000000000
 Ne       -12.0000000000        0.0000000000       36.0000000000
 Ne       -12.0000000000       12.0000000000      -12.0000000000
 Ne       -12.0000000000       12.0000000000        0.0000000000
 Ne       -12.0000000000       12.0000000000       12.0000000000
 Ne       -12.0000000000       12.0000000000       24.0000000000
 Ne       -12.0000000000       12.0000000000       36.0000000000
 Ne       -12.0000000000       24.0000000000      -12.0000000000
 Ne       -12.0000000000       24.0000000000        0.0000000000
 Ne       -12.0000000000       24.0000000000       12.0000000000
 Ne       -12.0000000000       24.0000000000       24.0000000000
 Ne       -12.0000000000       24.0000000000       36.0000000000
 Ne       -12.0000000000       36.0000000000      -12.0000000000
 Ne       -12.0000000000       36.0000000000        0.0000000000
 Ne       -12.0000000000       36.0000000000       12.0000000000
 Ne       -12.0000000000       36.0000000000       24.0000000000
 Ne       -12.0000000000       36.0000000000       36.0000000000
 Ne         0.0000000000      -12.0000000000      -12.0000000000
 Ne         0.0000000000      -12.0000000000        0.0000000000
 Ne         0.0000000000      -12.0000000000       12.0000000000
 Ne         0.0000000000      -12.0000000000       24.0000000000
 Ne         0.0000000000      -12.0000000000       36.0000000000
 Ne         0.0000000000        0.0000000000      -12.0000000000
 Ne         0.0000000000        0.0000000000       12.0000000000
 Ne         0.0000000000        0.0000000000       24.0000000000
 Ne         0.0000000000        0.0000000000       36.0000000000
 Ne         0.0000000000       12.0000000000      -12.0000000000
 Ne         0.0000000000       12.0000000000        0.0000000000
 Ne         0.0000000000       12.0000000000       12.0000000000
 Ne         0.0000000000       12.0000000000       24.0000000000
 Ne         0.0000000000       12.0000000000       36.0000000000
 Ne         0.0000000000       24.0000000000      -12.0000000000
 Ne         0.0000000000       24.0000000000        0.0000000000
 Ne         0.0000000000       24.0000000000       12.0000000000
 Ne         0.0000000000       24.0000000000       24.0000000000
 Ne         0.0000000000       24.0000000000       36.0000000000
 Ne         0.0000000000       36.0000000000      -12.0000000000
 Ne         0.0000000000       36.0000000000        0.0000000000
 Ne         0.0000000000       36.0000000000       12.0000000000
 Ne         0.0000000000       36.0000000000       24.0000000000
 Ne         0.0000000000       36.0000000000       36.0000000000
 Ne        12.0000000000      -12.0000000000      -12.0000000000
 Ne        12.0000000000      -12.0000000000        0.0000000000
 Ne        12.0000000000      -12.0000000000       12.0000000000
 Ne        12.0000000000      -12.0000000000       24.0000000000
 Ne        12.0000000000      -12.0000000000       36.0000000000
 Ne        12.0000001629       -0.0000000156      -11.9999996065
 Ne        12.0000001886        0.0000000008       11.9999995420
 Ne        12.0000000000        0.0000000000       24.0000000000
 Ne        12.0000000000        0.0000000000       36.0000000000
 Ne        12.0000000000       12.0000000000      -12.0000000000
 Ne        12.0000000000       12.0000000000        0.0000000000
 Ne        12.0000000000       12.0000000000       12.0000000000
 Ne        12.0000000000       12.0000000000       24.0000000000
 Ne        12.0000000000       12.0000000000       36.0000000000
 Ne        12.0000000000       24.0000000000      -12.0000000000
 Ne        12.0000000000       24.0000000000        0.0000000000
 Ne        12.0000000000       24.0000000000       12.0000000000
 Ne        12.0000000000       24.0000000000       24.0000000000
 Ne        12.0000000000       24.0000000000       36.0000000000
 Ne        12.0000000000       36.0000000000      -12.0000000000
 Ne        12.0000000000       36.0000000000        0.0000000000
 Ne        12.0000000000       36.0000000000       12.0000000000
 Ne        12.0000000000       36.0000000000       24.0000000000
 Ne        12.0000000000       36.0000000000       36.0000000000
 Ne        24.0000000000      -12.0000000000      -12.0000000000
 Ne        24.0000000000      -12.0000000000        0.0000000000
 Ne        24.0000000000      -12.0000000000       12.0000000000
 Ne        24.0000000000      -12.0000000000       24.0000000000
 Ne        24.0000000000      -12.0000000000       36.0000000000
 Ne        24.0000002912        0.0000000013      -11.9999978848
 Ne        24.0000002814       -0.0000000002       11.9999978787
 Ne        24.0000000000        0.0000000000       24.0000000000
 Ne        24.0000000000        0.0000000000       36.0000000000
 Ne        24.0000000000       12.0000000000      -12.0000000000
 Ne        24.0000000000       12.0000000000        0.0000000000
 Ne        24.0000000000       12.0000000000       12.0000000000