1696
 i =        0, time =        0.000, E =         7.2954347933
  S         5.5561220778        1.4162894838       -1.1704477905
  S         4.3001467980       -2.2345805754       -2.3269809240
  S         6.7863217314        4.8042217388        0.6660080054
  C         5.3727324871       -0.1761870170       -0.4859460618
  C         4.9205568974       -1.4309399148       -0.8967294753
  C         6.1434307434        0.9545156724        1.3955930178
  C         4.2206037594       -3.7698657637       -1.4310520052
  C         6.0923651720        1.9856285979        0.3710294918
  C         5.6896197987       -0.2512400997        0.8620116648
  C         5.0214757472       -2.2578889776        0.1609603409
  C         3.8929890964       -4.9821559311       -1.9698109633
  C         4.6630197585       -3.5747535375       -0.1403431664
  C         3.4718611317       -5.3040372021       -3.2304334545
  C         3.3148014393       -4.3125821187       -4.2660134114
  C         3.2360174572       -6.6429971605       -3.5892191826
  N         5.5162353791       -1.6290712210        1.2881421034
  N         6.5566993773        1.5226472898        2.5879224253
  C         6.5389756122        3.1584726402        0.9908877275
  C         6.7835915063        2.8724168281        2.3490451081
  C         7.2205064015        3.9446872431        3.1191841143
  C         7.5621071827        6.3712040347        2.8309790986
  C         7.1926556490        7.8517201943        0.9309586756
  C         7.1746140710        5.1012684275        2.3413768862
  C         7.5613039526        7.6278680610        2.2669249890
  C         7.9674989293        8.7471316731        3.0691874590
  N         8.2345565566        9.6331493956        3.7512945381
  N         6.7973113209        8.0507361727       -0.1516762087
  N         3.1060020486       -3.5443764708       -5.1141896194
  N         2.9120995457       -7.7467609065       -3.8786454143
  C         6.5703987967        0.9244312012        3.9031778108
  C         7.8782276326        0.3604602396        4.3610302264
  C         5.7784124793       -2.2312893797        2.5693655233
  C         4.5291939125       -2.3937930400        3.3909378908
  C         7.8469048861       -0.3859255964        5.6109379668
  C         4.7242143971       -3.1476750097        4.6782153205
  H         3.7988840651       -5.9332678729       -1.1728717353
  H         4.6525794324       -4.4094590241        0.7556693949
  H         7.5332122453        3.8823777041        4.3192437543
  H         7.8516732765        6.3479336767        4.0360593903
  H         6.1675240743        1.7769994021        4.6579595566
  H         5.7537960684        0.0208701506        3.8933401127
  H         8.2745054284       -0.3904051102        3.4940335164
  H         8.7345221624        1.2142864957        4.4419623125
  H         6.0815408514       -3.4050613495        2.3745652756
  H         6.6644666586       -1.6454625056        3.1278715489
  H         4.1375803308       -1.2490954325        3.5185799866
  H         3.6248446359       -2.8493625040        2.7350988196
  H         6.9192896260       -1.1938537128        5.5587812873
  H         8.8787213878       -0.9770912192        5.9169144900
  H         7.5795952551        0.3529864514        6.5471184417
  H         5.1421205923       -4.3078586191        4.5490216957
  H         5.5648974483       -2.5215763026        5.3322646670
H   3.7313058689  -3.1561743048  5.3913930559
S   3.9459933487  15.2605549197  7.2240750235
S   5.1990650653  11.6038303176  8.3961174674
S   2.7771663873  18.6631917300  5.4206999517
CP   4.2315092410  13.6647689965  6.6124056360
CP   4.6137892636  12.4305837929  7.0394088669
CP   3.3843811903  14.7789899782  4.6963494312
CP   5.2543331068  10.1055903187  7.5326718860
CP   3.4066034739  15.7995150639  5.7010175728
CP   3.8152287492  13.5649742664  5.1952213529
CP   4.5075755739  11.5312350678  5.9241079639
CP   5.6157488053  8.8908142720  8.0520994586
CP   4.8517006863  10.2375210530  6.2146554604
CP   6.0128182256  8.5557703635  9.3597030514
CP   6.2263270877  9.5021705803  10.3864070187
CP   6.3366124643  7.1922324169  9.6852106688
N   4.0234520418  12.2410300997  4.7743823319
N   2.9683190496  15.3716772256  3.5476342211
CP   2.9939208161  16.9715604359  5.0919185611
CP   2.7263266730  16.6678140709  3.7499345588
CP   2.2969698601  17.8014881122  2.9945849027
CP   1.9039580035  20.1920931469  3.2254221648
CP   2.3446355167  21.6540278224  5.1474424263
CP   2.2526568269  18.9302807978  3.7920364187
CP   1.9198333604  21.4500605419  3.7754014104
CP   1.5842118094  22.5845864763  2.9985051327
N   1.3038064447  23.5338587500  2.3466666107
N   2.7101162370  21.9066919907  6.2623445606
N   6.3313445087  10.3162230134  11.1948176088
N   6.5732645044  6.0572350959  9.9530507414
CP   2.9241360882  14.7781262570  2.2142749842
CP   1.6045748884  14.1846205427  1.7288481139
CP   3.7696654464  11.6141715641  3.5514518433
CP   4.9929877163  11.4958714618  2.6750660812
CP   1.7299581566  13.4232605664  0.4716683562
CP   4.8121684159  10.7485393947  1.3941439317
H   5.5694264456  7.9324699966  7.2506215927
H   4.7810229795  9.3643058357  5.3652890296
H   2.0251000731  17.7643081190  1.7827817679
H   1.5592727032  20.1872128112  2.0288624220
H   3.2949503259  15.5681365164  1.3519468121
H   3.7201587958  13.8729023036  2.2519992460
H   1.1827794696  13.4675561279  2.6023404456
H   0.8623482513  15.1254014559  1.5297393248
H   3.3097310682  10.5008512105  3.6801897906
H   2.9246636996  12.2291263883  2.9498565126
H   5.4673256861  12.5773184283  2.4268200380
H   5.8162854384  10.8524708044  3.2884757783
H   2.6124540903  12.5756109136  0.4817152002
H   0.7072815566  12.8225681442  0.1594941203
H   2.0143763558  14.1613839460  -0.4627582713
H   4.6254614525  9.5776859785  1.6699091925
H   3.8137311635  11.2306300558  0.8639925227
  H         5.8595155604       10.5603166027        0.7843336507
  S        -1.2234612968       26.2749915209       13.3257977759
  S         0.0408783846       29.9096309050       14.4919417240
  S        -2.3914005288       22.8522993053       11.5262169390
  C        -0.9535483494       27.8229214193       12.6443532761
  C        -0.5280074210       29.1248686008       13.1025125258
  C        -1.8570321227       26.7162118264       10.7819028622
  C         0.1028388317       31.4291156557       13.5991382765
  C        -1.8212992055       25.7396101173       11.7371486495
  C        -1.3267353415       27.9608453437       11.2663870938
  C        -0.6811036152       29.9523243854       11.9876033659
  C         0.4874206595       32.6782144209       14.1627547712
  C        -0.3138855221       31.2862559064       12.2438700770
  C         0.8957369556       32.9675679039       15.4256252444
  C         1.0410901775       32.0214922177       16.4528789867
  C         1.1535943816       34.3094400466       15.7718019889
  N        -1.1663855776       29.2725488374       10.8939543801
  N        -2.2055446687       26.2025331652        9.5758592037
  C        -2.1955559661       24.5311749187       11.1610413789
  C        -2.4257266852       24.8200552302        9.8451152152
  C        -2.8830085801       23.7067013740        9.0652373755
  C        -3.2349127182       21.3100339243        9.3245076651
  C        -2.7822675186       19.7995941163       11.2045945537
  C        -2.8993346599       22.5523988281        9.8478299416
  C        -3.2594918528       20.1003889194        9.8937883695
  C        -3.5905873051       18.9429864335        9.1187957162
  N        -3.8278555832       18.0489337983        8.4090741091
  N        -2.4501796968       19.6578940970       12.3318230808
  N         1.1999141323       31.2292230577       17.2888249037
  N         1.3884678543       35.4256553971       16.0588149056
  C        -2.2381033389       26.7897185984        8.2761450601
  C        -3.5332821380       27.3639875155        7.8307484146
  C        -1.3864375671       29.9411598533        9.6249826510
  C        -0.1393411020       30.0659872602        8.7724456358
  C        -3.4492447133       28.0764449318        6.5884540323
  C        -0.3985471157       30.8061132286        7.4833254778
  H         0.5519872757       33.6502252046       13.3753381086
  H        -0.2836179316       32.1726100769       11.4042854048
  H        -3.2748569754       23.7408825098        7.8807720756
  H        -3.6668247262       21.3416906607        8.1637846563
  H        -1.8333470759       25.9731672821        7.4753750020
  H        -1.4356629160       27.6739413570        8.1982550998
  H        -3.9448655146       28.0382411595        8.7496138489
  H        -4.3106428521       26.4330326555        7.7125061110
  H        -1.7785985033       31.1051179541        9.6728084268
  H        -2.2200702483       29.3499208117        8.9978111754
  H         0.2144636037       28.9304533894        8.4996430282
  H         0.7349543234       30.5595908233        9.4277027742
  H        -2.5978672699       28.9223519937        6.7264150548
  H        -4.5654816024       28.5071431068        6.3707106102
  H        -3.1718188889       27.4455776805        5.5745108238
  H        -0.7991164387       31.9353011616        7.7202392036
  H        -1.2250329676       30.1475282927        6.8549993525
  H         0.6315911106       30.7814739590        6.8228220605
  S         0.4144759593       12.4200329970        4.9308426253
  S        -0.8716357625       16.0792205178        3.7835642998
  S         1.5897103041        9.0277634008        6.7262898149
  C         0.1366490436       14.0214166078        5.6000786241
  C        -0.2921391513       15.2571297722        5.1389406079
  C         0.9484865779       12.8585907150        7.4366839292
  C        -0.8881895916       17.5893794646        4.6652199097
  C         0.9516095898       11.8715637817        6.4700300847
  C         0.5153675403       14.1287317527        6.9276634355
  C        -0.1646303178       16.1120190252        6.2522597609
  C        -1.2791269914       18.8067766596        4.0630611788
  C        -0.5384249077       17.4308845178        5.9954514520
  C        -1.6929296086       19.2010632059        2.8258298934
  C        -1.8565706488       18.1794537863        1.8300472832
  C        -1.9423935558       20.5082646163        2.4638246344
  N         0.3254012442       15.4178513486        7.3479045079
  N         1.4362328998       12.3350549483        8.6815250731
  C         1.3603073750       10.7055427174        7.0759320572
  C         1.6155645402       11.0060989640        8.4018696023
  C         2.0320839128        9.9092906450        9.1714554399
  C         2.4112148304        7.4841373408        8.9219074516
  C         2.0185098666        5.9912394897        7.0216627713
  C         2.0758695375        8.7415494943        8.4070802189
  C         2.3779017097        6.2203231656        8.3510964759
  C         2.7791839394        5.1124679916        9.1206885895
  N         3.0315891937        4.2125997264        9.8218206732
  N         1.7060059473        5.7700876115        5.9216381357
  N        -1.9930230949       17.3707487402        0.9890506551
  N        -2.2046576915       21.6148199702        2.2163381758
  C         1.4092647217       12.9421003465        9.9894479672
  C         2.7463693620       13.5216403204       10.3988787202
  C         0.5577052214       16.1029275139        8.6305992448
  C        -0.6764472067       16.2116298149        9.5058265574
  C         2.6403756285       14.2580551155       11.6482068523
  C        -0.4800301995       16.9799456389       10.7835991578
  H        -1.2622174209       19.7996969604        4.8125323920
  H        -0.3379023444       18.3950438624        6.7189294028
  H         2.3203192496        9.7941718031       10.3839455031
  H         2.7915592110        7.4927952151       10.1082890247
  H         0.9775234844       12.1288798959       10.7756214861
  H         0.5278819671       13.7541432183        9.9246259487
  H         3.2681071831       14.2686244405        9.6200553244
  H         3.4803434339       12.5596418888       10.3293859389
  H         0.8970649773       17.2570668273        8.4344475603
  H         1.3117147957       15.4275896927        9.2956553371
  H        -1.0383510800       15.0868570578        9.8553422103
  H        -1.5745185402       16.7162445026        8.8673187366
  H         1.8031187363       15.1529619647       11.7260944401
  H         3.6710178381       14.8221441464       11.9186243412
  H         2.4886828725       13.4929301896       12.5820059606
  H        -0.2197748542       18.1704786716       10.6043034016
  H         0.4464671670       16.4059635205       11.3273831370
  H        -1.5058785061       16.9965945679       11.4441230543
  S         2.5477244986        1.4104144320       11.0075187625
  S         1.3125025289       -2.2124698931        9.8416299116
  S         3.7653315515        4.8112516214       12.8334437972
  C         2.3145044828       -0.1340857419       11.6797196482
  C         1.9257588427       -1.4032892682       11.2397158316
  C         3.1168669165        0.9888806335       13.5463209267
  C         1.2550061221       -3.7383202239       10.7391968886
  C         3.1507384272        1.9587674129       12.5197206036
  C         2.6807786102       -0.2817647985       13.0215733602
  C         2.0729843299       -2.2850947191       12.3488275252
  C         0.8666976360       -4.9711689118       10.2017550688
  C         1.6732219709       -3.5953567564       12.0700138568
  C         0.5101921869       -5.3145701649        8.9284599374
  C         0.3230868815       -4.3360702476        7.8695112373
  C         0.1880311899       -6.6427196876        8.5802654849
  N         2.4771910365       -1.6047249634       13.4367445102
  N         3.6086003919        1.5008023396       14.7309655026
  C         3.5201637477        3.1443832456       13.1408833523
  C         3.7994203879        2.8413154625       14.4953077561
  C         4.2050085042        3.9575640566       15.2434974627
  C         4.6084366285        6.3782835428       15.0225650449
  C         4.1938771698        7.8394827706       13.1054939462
  C         4.2689966384        5.1055737581       14.5113816602
  C         4.5839896773        7.5980145233       14.4681846255
  C         4.9666161286        8.7435431121       15.1990280490
  N         5.2651303487        9.6305296761       15.9100238201
  N         3.8109575544        8.0667564817       12.0186969952
  N         0.1219139547       -3.5241704854        7.0402224853
  N        -0.0807361981       -7.7479824594        8.2806587362
  C         3.5861202673        0.8959082297       16.0584632169
  C         4.8771137740        0.3556918327       16.4798367386
  C         2.7133660309       -2.2158537466       14.7163880961
  C         1.5191440399       -2.3625913021       15.5655649957
  C         4.8228228045       -0.3870136335       17.7828673899
  C         1.7304208762       -3.1124836322       16.8287426001
  H         0.8399795493       -6.0311394714       10.8756276438
  H         1.7286594038       -4.5634334862       12.8159907981
  H         4.4510629446        3.8818737554       16.4587230610
  H         4.9519144475        6.3953932524       16.2128343275
  H         3.3014661844        1.7722853656       16.8477343574
  H         2.7433943756        0.0251249779       16.1973417386
  H         5.3820655931       -0.3191986828       15.6216364836
  H         5.6519045830        1.2876868546       16.6276428985
  H         3.1994678133       -3.3304349728       14.6541243848
  H         3.5843960353       -1.6097349911       15.2931222858
  H         1.0287839471       -1.2778839407       15.7850002723
  H         0.7683874295       -2.9588096787       14.8088623438
  H         4.0025682341       -1.2758571530       17.7673384757
  H         5.8415208041       -0.9889526097       18.0785065989
  H         4.5756179830        0.3486911476       18.7401116752
  H         2.1289805987       -4.2469086974       16.5885077214
  H         2.5347629427       -2.5766301813       17.5840729399
  H         0.7281169466       -3.2174483862       17.4948484474
  S         0.9637000377       15.2907450504       19.4058342473
  S         2.2020333867       11.6351170337       20.5504244116
  S        -0.2656034564       18.6518738469       17.5897613577
  C         1.1898590138       13.6688146605       18.7315499204
  C         1.6208776380       12.4120025928       19.1434455921
  C         0.3672657418       14.8079349878       16.8740773771
  C         2.2925167669       10.0663646547       19.6652180922
  C         0.3935303127       15.8499698767       17.8792319455
  C         0.8199451354       13.5449489089       17.4064972415
  C         1.4850807304       11.5453778535       18.0525167946
  C         2.6149791746        8.8708508115       20.2396477673
  C         1.8604328563       10.2449219621       18.3525198203
  C         3.0665756849        8.5262553192       21.5215564883
  C         3.2127765852        9.4858773262       22.5102495223
  C         3.3477961073        7.2029870905       21.8617611264
  N         0.9823492163       12.2265463872       16.9761574899
  N        -0.0644989736       15.3554651611       15.6635634815
  C         0.0155991264       16.9894925193       17.2399092649
  C        -0.2728675150       16.7163854238       15.9064336370
  C        -0.6965000497       17.7744459411       15.1713371717
  C        -1.0981649126       20.2043255560       15.3711086606
  C        -0.6480246287       21.6701765164       17.3062842167
  C        -0.7155423421       18.9619383556       15.9147022481
  C        -1.0992442018       21.4451650953       15.9601759170
  C        -1.3564291175       22.5781038315       15.1774020000
  N        -1.7056243437       23.5008546652       14.5209549585
  N        -0.2176346081       21.8976740992       18.4116797145
  N         3.3428091623       10.2819228821       23.3577595835
  N         3.5556496343        6.1111888176       22.1410842831
  C        -0.0815898756       14.7591899011       14.3249019388
  C        -1.3831851767       14.1806658081       13.9170662746
  C         0.7686799806       11.6216803613       15.7042173000
  C         1.9864893617       11.4547412171       14.8425098249
  C        -1.2825617002       13.4425005249       12.6412741086
  C         1.7850800243       10.7232432910       13.5828146375
  H         2.6669368936        7.9682368279       19.3701574133
  H         1.8381537150        9.3778083907       17.5001113924
  H        -0.9601693633       17.7279528107       13.9633198447
  H        -1.5339856470       20.0910446017       14.2245167178
  H         0.3168953235       15.5470427382       13.4910995004
  H         0.7852431130       13.9123472112       14.3015058961
  H        -1.9050224272       13.3962035425       14.6948854164
  H        -2.1946077257       15.0398943312       13.6316544323
  H         0.3226230169       10.5065031571       15.8990794608
  H        -0.1165487300       12.1578958507       15.0715843003
  H         2.3938298704       12.5964248580       14.6764482114
  H         2.8559978977       10.9771754553       15.5413401176
  H        -0.4244200899       12.5808756507       12.6995273371
  H        -2.3326851955       12.9169292320       12.3088034743
  H        -0.9509067559       14.1829684172       11.7302026842
  H         1.4934654591        9.5493948356       13.8053442917
  H         0.9898816334       11.3661080411       12.9158057858
  H         2.7436572748       10.7305767634       12.8376330531
  S        -4.2018976853       26.2528240149       25.4640175825
  S        -2.9582995273       29.9100704847       26.6258864256
  S        -5.4040136715       22.8785049130       23.6488686331
  C        -4.0280915982       27.8633617988       24.8147064399
  C        -3.5420369883       29.0958292416       25.2481955388
  C        -4.8285496275       26.7198644899       22.9841274547
  C        -2.9095330431       31.4087012091       25.7349307864
  C        -4.7187920750       25.7197653330       23.9558028838
  C        -4.3645625328       27.9913530171       23.4613432719
  C        -3.6978534013       29.9998208908       24.1896182186
  C        -2.5314340992       32.6383151477       26.3466741708
  C        -3.3464208409       31.2750071721       24.4477880067
  C        -2.1388000785       32.9822632564       27.5694755739
  C        -1.9399695447       32.0138344359       28.5992537946
  C        -1.8123021263       34.3418971659       27.9644255159
  N        -4.1473610058       29.2852179796       23.0633080560
  N        -5.2195977520       26.1463908796       21.7641009976
  C        -5.1657867773       24.5253586378       23.3506380524
  C        -5.4679185402       24.8160560761       21.9543527998
  C        -5.8531693025       23.7225900709       21.2839422708
  C        -6.2384702197       21.3007206014       21.4897355574
  C        -5.8294884675       19.8479837894       23.3946894991
  C        -5.8689177770       22.5710301722       21.9978817879
  C        -6.2549022952       20.0697253503       22.0521322430
  C        -6.6036944130       18.9338053142       21.2380629297
  N        -6.8473434245       18.0305986037       20.5904760669
  N        -5.4349379976       19.5968278990       24.4566656619
  N        -1.8326707835       31.2056744865       29.4599593145
  N        -1.5815411128       35.4699918228       28.2035220937
  C        -5.2024943752       26.7652741382       20.4552418640
  C        -6.5626234343       27.2855652179       19.9795717645
  C        -4.3922207266       29.9340545055       21.7978425712
  C        -3.1456104807       30.0724233706       20.9018280706
  C        -6.4073388704       28.0658552250       18.7311180057
  C        -3.4132455131       30.8166107209       19.6434277125
  H        -2.5586784250       33.5229210603       25.4553082365
  H        -3.3964530404       32.2085799284       23.6701641380
  H        -6.1656841902       23.6797314909       20.0911266615
  H        -6.6998600293       21.3860726822       20.3498939303
  H        -4.8430562177       25.8923196666       19.6913750798
  H        -4.3909520395       27.6479101157       20.4876129480
  H        -7.0204479575       28.0233237966       20.8489371772
  H        -7.2668215028       26.2953870568       19.8998893094
  H        -4.9335655760       31.0238819071       21.9368041742
  H        -5.2477620086       29.3762923219       21.1398394677
  H        -2.6115533135       28.9741285050       20.8238352538
  H        -2.3155144046       30.5940454218       21.5950218986
  H        -5.6246549713       29.0200012448       18.6930459691
  H        -7.4397484696       28.6956270473       18.4829918726
  H        -6.1211980908       27.3217675844       17.8217808026
  H        -3.8151097097       31.9471070886       19.8620754978
  H        -4.3301320635       30.3171900312       19.0300093551
  H        -2.4082548916       30.8369462168       18.9775491738
  S        -2.5961428479       12.4187362396       17.0721285459
  S        -3.8860153046       16.0737666556       15.9246945223
  S        -1.4383489569        9.0167056092       18.9076534927
  C        -2.8316175602       14.0171695899       17.7457239742
  C        -3.2823035016       15.2723112811       17.3246803030
  C        -2.0211411696       12.8582492397       19.6484045217
  C        -3.8762571727       17.6138884747       16.8446719339
  C        -2.0412132660       11.8540203583       18.6504516977
  C        -2.4382372187       14.1245371308       19.1042061218
  C        -3.1165163970       16.1420282991       18.3938124751
  C        -4.2783180006       18.8338174489       16.2430598681
  C        -3.5288836546       17.4380841042       18.1695924032
  C        -4.7002024176       19.1410865658       15.0054447357
  C        -4.8496762452       18.1643516144       13.9687507575
  C        -4.9593751913       20.4891126837       14.6425839656
  N        -2.6292066597       15.4539379992       19.5256816628
  N        -1.6101713471       12.2917175683       20.8246127071
  C        -1.6287437429       10.6857241774       19.2540600158
  C        -1.3776675544       10.9958013862       20.5749072162
  C        -0.9133975339        9.9112348549       21.3310140634
  C        -0.6063270339        7.5028287038       21.1227218345
  C        -1.0025678481        5.9974176950       19.1909408068
  C        -0.9573902666        8.7752610463       20.5579294980
  C        -0.6299162372        6.2182078822       20.5342486862
  C        -0.2548734173        5.1100666512       21.2843991075
  N         0.0626357045        4.2165258226       21.9716301398
  N        -1.3676510587        5.7993218392       18.0971261489
  N        -5.0345878428       17.3952833655       13.1158870269
  N        -5.2495156694       21.6054106838       14.3892532340
  C        -1.5950024849       12.9054170047       22.1362682504
  C        -0.2595890514       13.4887157512       22.6402130212
  C        -2.4244084977       16.0630018278       20.8126294551
  C        -3.6315034411       16.2036642641       21.6214693464
  C        -0.3537451036       14.2576750860       23.8638535379
  C        -3.4049408453       16.9906068201       22.9017955029
  H        -4.1380378543       19.8703586892       16.9230223002
  H        -3.4820411356       18.3858177765       18.9317875934
  H        -0.7006634344        9.8291088887       22.5555431592
  H        -0.3367206633        7.5319804014       22.3316668533
  H        -1.9257279619       12.0470605530       22.9286668522
  H        -2.3645708112       13.8385131664       22.2152735435
  H         0.2080090595       14.2550172395       21.8375870743
  H         0.5635470071       12.5956256152       22.7352472292
  H        -2.0723875572       17.2081124338       20.6277240867
  H        -1.6074857545       15.4801341361       21.4849403584
  H        -4.0729588039       15.0853015724       21.8702527610
  H        -4.5477651427       16.6424773142       20.9505677722
  H        -1.2381920370       15.0952223106       23.8204218817
  H         0.6167277704       14.9376382937       24.1544782643
  H        -0.6296380554       13.4688012787       24.7354609633
  H        -3.0682457542       18.1278264472       22.6361957514
  H        -2.5466306730       16.5242816910       23.6468470400
  H        -4.4411230751       17.1379657595       23.5225878140
  S         5.5381906859       29.0979513758       -1.1852571084
  S         4.3111496844       25.4626917986       -2.2996894939
  S         6.7537125803       32.4864838654        0.6609777910
  C         5.3234881752       27.4991086547       -0.5042756340
  C         4.9111836324       26.2622089242       -0.9416538469
  C         6.1048204968       28.6451821922        1.4206390014
  C         4.2250354396       23.9229884003       -1.4319616247
  C         6.1251799546       29.6395708581        0.3819840026
  C         5.7195749607       27.3936093144        0.8599757926
  C         5.0459129884       25.3874693409        0.1562265159
  C         3.9009639589       22.6883298788       -1.9648620987
  C         4.6637275507       24.0948920410       -0.1176205590
  C         3.5000452195       22.3968866427       -3.2718005463
  C         3.3021012547       23.3243923290       -4.2487713130
  C         3.1767881694       21.0423103587       -3.6027806942
  N         5.5243343403       26.0730174419        1.2839648547
  N         6.5798453190       29.1452445461        2.5723871069
  C         6.5250662092       30.8487965893        0.9902564611
  C         6.7800317312       30.5132106186        2.3375905121
  C         7.2059751103       31.6368919393        3.0454670908
  C         7.5891978338       34.0307339544        2.8051259474
  C         7.1725146955       35.5581859497        0.9453575524
  C         7.2026961555       32.7919352981        2.3279434269
  C         7.5825950317       35.2917104525        2.2579551384
  C         7.9499878803       36.4212343007        3.0310837333
  N         8.2224770755       37.3292118545        3.7160856996
  N         6.7816405838       35.7584741869       -0.1372606951
  N         3.1413208894       24.1346771777       -5.0931188970
  N         2.9449813506       19.9335189087       -3.8949183766
  C         6.5955604450       28.6087593982        3.8426107641
  C         7.9405873520       28.0660822711        4.3456267144
  C         5.7167152861       25.4317675601        2.5268461516
  C         4.4843281598       25.3028719881        3.4027036720
  C         7.8003411075       27.3069532665        5.6006547977
  C         4.7222921294       24.5041801475        4.6569723911
  H         3.8543873555       21.7161288197       -1.1621157832
  H         4.6221788135       23.1435280412        0.6487123765
  H         7.4305795292       31.5948994547        4.2603631462
  H         7.9979161574       33.9914025108        3.9750191056
  H         6.1411066200       29.3990822481        4.6706510362
  H         5.8403166029       27.6588572687        3.9351833548
  H         8.3336102436       27.3099661052        3.4848103056
  H         8.6478678120       29.0526094690        4.5158818476
  H         6.1646474263       24.3139834602        2.3356327157
  H         6.5979489182       25.9945604517        3.1132741123
  H         4.0509989893       26.4116718514        3.6613217268
  H         3.5915204275       24.8117505352        2.7498293974
  H         6.9303253922       26.4535160168        5.5828031215
  H         8.7873496492       26.6819118999        5.9328900767
  H         7.6016334691       28.0023281635        6.5753154517
  H         5.1201090190       23.3485706504        4.5066263662