#     Step Nr.          Time[fs]        Kin.[a.u.]          Temp[K]            Pot.[a.u.]        Cons Qty[a.u.]        UsedTime[s]
         0            0.000000         2.000584410       248.469552672         7.235207805         9.235792215         0.000000000
         1            0.100000         1.853522507       230.204687175         7.382332724         9.235855231         1.363661904
         2            0.200000         1.744922894       216.716779741         7.491008796         9.235931690         0.194480812
         3            0.300000         1.676021242       208.159298899         7.559888619         9.235909860         0.199482445
         4            0.400000         1.647527471       204.620415735         7.588359049         9.235886520         0.177488720
         5            0.500000         1.659601532       206.119995801         7.576243863         9.235845394         0.146606036
         6            0.600000         1.711852983       212.609546877         7.523932852         9.235785835         0.129270872
         7            0.700000         1.803348360       223.973134140         7.432360719         9.235709080         0.128056655
         8            0.800000         1.932626430       240.029274532         7.302990716         9.235617146         0.134784721
         9            0.900000         2.097720871       260.533753897         7.137791632         9.235512502         0.128958829
        10            1.000000         2.296189901       285.183306834         6.939208120         9.235398021         0.143854531
        11            1.100000         2.525152627       313.620130456         6.710124231         9.235276858         0.127429817
        12            1.200000         2.781331246       345.437126867         6.453821179         9.235152425         0.126221744
        13            1.300000         3.061098489       380.183794556         6.173929871         9.235028360         0.152506115
        14            1.400000         3.360529480       417.372669877         5.874378894         9.234908373         0.168149201
        15            1.500000         3.675457327       456.486231366         5.559339021         9.234796348         0.151172135
        16            1.600000         4.001531539       496.984154522         5.233164676         9.234696215         0.125049317
        17            1.700000         4.334278445       538.310816035         4.900333446         9.234611890         0.132804582
        18            1.800000         4.669162761       579.902940769         4.565384490         9.234547251         0.140726482
        19            1.900000         5.001649366       621.197273322         4.232856751         9.234506116         0.123513041
        20            2.000000         5.327264482       661.638177481         3.907227725         9.234492207         0.131507728
        21            2.100000         5.641655571       700.685074343         3.592853497         9.234509068         0.151564142
        22            2.200000         5.940649038       737.819609891         3.293911029         9.234560067         0.140008468
        23            2.300000         6.220304892       772.552443324         3.014343429         9.234648321         0.146319959
        24            2.400000         6.476967928       804.429603514         2.757808824         9.234776751         0.144863764
        25            2.500000         6.707314785       833.038334116         2.527633149         9.234947934         0.126302540
        26            2.600000         6.908396272       858.012350177         2.326767825         9.235164097         0.134721927
        27            2.700000         7.077674502       879.036449829         2.157752777         9.235427279         0.118391789
        28            2.800000         7.213054079       895.850388187         2.022684837         9.235738915         0.145990167
        29            2.900000         7.312907131       908.251986002         1.923193130         9.236100261         0.162759420
        30            3.000000         7.376092233       916.099479981         1.860419751         9.236511984         0.140273046
        31            3.100000         7.401966898       919.313074189         1.835007591         9.236974489         0.146564031
        32            3.200000         7.390393288       917.875649268         1.847094380         9.237487668         0.151218610
        33            3.300000         7.341737172       911.832633451         1.896313878         9.238051050         0.164551852
        34            3.400000         7.256860449       901.291073078         1.981803223         9.238663673         0.152902720
        35            3.500000         7.137106846       886.417857005         2.102217400         9.239324246         0.136254538
        36            3.600000         6.984281414       867.437169811         2.255749602         9.240031016         0.156991636
        37            3.700000         6.800624212       844.627223635         2.440157746         9.240781958         0.113587404
        38            3.800000         6.588778373       818.316291423         2.652796282         9.241574655         0.134968031
        39            3.900000         6.351752948       788.878092661         2.890653547         9.242406495         0.128346268
        40            4.000000         6.092880907       756.726577473         3.150393430         9.243274337         0.137441229
        41            4.100000         5.815773096       722.310207197         3.428401943         9.244175040         0.149411304
        42            4.200000         5.524268918       686.105829954         3.720836288         9.245105206         0.148135476
        43            4.300000         5.222384052       648.612186933         4.023677229         9.246061281         0.109002139
        44            4.400000         4.914256015       610.343151573         4.332783608         9.247039624         0.152308026
        45            4.500000         4.604088440       571.820808661         4.643948090         9.248036530         0.148181509
        46            4.600000         4.296094607       533.568441237         4.952953681         9.249048288         0.119083116
        47            4.700000         3.994441197       496.103544787         5.255630043         9.250071240         0.163049474
        48            4.800000         3.703192853       459.930941699         5.547908960         9.251101813         0.125208564
        49            4.900000         3.426258253       425.536083990         5.825878329         9.252136582         0.140467331
        50            5.000000         3.167338469       393.378639122         6.085833817         9.253172286         0.153034616
        51            5.100000         2.929878339       363.886450635         6.324327541         9.254205879         0.124907238
        52            5.200000         2.717021442       337.449946540         6.538213119         9.255234560         0.154739272
        53            5.300000         2.531569197       314.417058741         6.724686714         9.256255911         0.123901099
        54            5.400000         2.375944686       295.088730285         6.881322893         9.257267580         0.125587989
        55            5.500000         2.252161654       279.715065206         7.006106147         9.258267801         0.120859234
        56            5.600000         2.161799052       268.492166916         7.097456035         9.259255087         0.145078607
        57            5.700000         2.105981470       261.559707864         7.154246860         9.260228330         0.129347127
        58            5.800000         2.085365714       258.999262171         7.175821108         9.261186822         0.153484697
        59            5.900000         2.100133633       260.833415395         7.161996631         9.262130264         0.117435176
        60            6.000000         2.149991276       267.025659075         7.113067292         9.263058568         0.123602694
        61            6.100000         2.234174414       277.481077247         7.029797999         9.263972413         0.136899687
        62            6.200000         2.351460297       292.047806256         6.913412217         9.264872514         0.117314974
        63            6.300000         2.500185491       310.519250036         6.765574605         9.265760096         0.156042401
        64            6.400000         2.678269538       332.637018808         6.588367129         9.266636666         0.117350226
        65            6.500000         2.883244069       358.094545070         6.384260010         9.267504079         0.134118116
        66            6.600000         3.112287027       386.541333365         6.156077460         9.268364487         0.118485523
        67            6.700000         3.362261444       417.587777236         5.906958814         9.269220258         0.098451506
        68            6.800000         3.629758307       450.810482361         5.640315716         9.270074023         0.143199777
        69            6.900000         3.911142980       485.758032423         5.359785580         9.270928561         0.172560137
        70            7.000000         4.202604460       521.957106596         5.069182333         9.271786792         0.138593450
        71            7.100000         4.500206807       558.918867187         4.772444915         9.272651722         0.153491300
        72            7.200000         4.799942155       596.145543383         4.473584257         9.273526412         0.148181446
        73            7.300000         5.097784546       633.137117072         4.176629419         9.274413965         0.155794632
        74            7.400000         5.389743731       669.398005516         3.885573674         9.275317405         0.152044782
        75            7.500000         5.671918475       704.443681149         3.604321204         9.276239679         0.155061185
        76            7.600000         5.940548441       737.807115962         3.336635020         9.277183462         0.137169313
        77            7.700000         6.192064087       769.044978151         3.086087658         9.278151746         0.155263504
        78            7.800000         6.423133982       797.743508979         2.856012828         9.279146810         0.213817760
        79            7.900000         6.630708677       823.523971647         2.649462210         9.280170887         0.220953276
        80            8.000000         6.812060671       846.047614529         2.469165224         9.281225895         0.242639348
        81            8.100000         6.964820108       865.020105174         2.317493359         9.282313468         0.168044735
        82            8.200000         7.087005416       880.195335229         2.196429540         9.283434956         0.129573783
        83            8.300000         7.177048679       891.378572052         2.107542562         9.284591241         0.132759226
        84            8.400000         7.233815408       898.428913884         2.051967506         9.285782914         0.149308270
        85            8.500000         7.256618511       901.261024685         2.030391905         9.287010416         0.153482717
        86            8.600000         7.245226182       899.846114718         2.043047011         9.288273193         0.143789290
        87            8.700000         7.199863447       894.212131673         2.089707379         9.289570825         0.149882259
        88            8.800000         7.121207724       884.443210150         2.169694693         9.290902417         0.156527074
        89            8.900000         7.010378260       870.678358548         2.281888428         9.292266687         0.151364939
        90            9.000000         6.868919771       853.109428558         2.424742148         9.293661919         0.134356773
        91            9.100000         6.698780040       831.978331737         2.596306086         9.295086126         0.136406424
        92            9.200000         6.502282210       807.573598983         2.794254781         9.296536991         0.153787674
        93            9.300000         6.282092398       780.226357896         3.015919550         9.298011947         0.146979269
        94            9.400000         6.041182706       750.305739256         3.258325454         9.299508160         0.135888638
        95            9.500000         5.782790298       718.213793610         3.518232289         9.301022587         0.135170298
        96            9.600000         5.510372799       684.379952945         3.792179226         9.302552025         0.146560069
        97            9.700000         5.227561026       649.255159213         4.076532085         9.304093111         0.129794104
        98            9.800000         4.938109674       613.305739837         4.367532762         9.305642435         0.094724011
        99            9.900000         4.645846566       577.007104612         4.661349974         9.307196540         0.055365557
       100           10.000000         4.354621347       540.837373664         4.954130461         9.308751808         0.071704185
       101           10.100000         4.067592052       505.188770098         5.242051166         9.309643218         0.104985947
       102           10.200000         3.788503258       470.526364792         5.521358902         9.309862160         0.052465504
       103           10.300000         3.521629694       437.381072449         5.788440495         9.310070189         0.053313261
       104           10.400000         3.270403670       406.179180828         6.039861390         9.310265060         0.052855004
       105           10.500000         3.038035162       377.319364265         6.272408693         9.310443855         0.053071171
       106           10.600000         2.827470218       351.167517264         6.483134018         9.310604237         0.052333152
       107           10.700000         2.641353132       328.052057083         6.669390943         9.310744075         0.052819829
       108           10.800000         2.481992856       308.259752344         6.828868695         9.310861551         0.052327564
       109           10.900000         2.351334097       292.032132413         6.959621073         9.310955171         0.051659103
       110           11.000000         2.250933522       279.562533131         7.060090240         9.311023763         0.052454367
       111           11.100000         2.181941210       270.993792422         7.129125316         9.311066526         0.052112665
       112           11.200000         2.145087730       266.416646046         7.165995329         9.311083058         0.053283500
       113           11.300000         2.140676959       265.868835055         7.170396164         9.311073123         0.052168561
       114           11.400000         2.168584626       269.334924961         7.142452415         9.311037041         0.051123839
       115           11.500000         2.228262648       276.746844888         7.082712809         9.310975457         0.051055724
       116           11.600000         2.318749168       287.985133629         6.992140165         9.310889334         0.051258050
       117           11.700000         2.438684075       302.880867297         6.872095888         9.310779963         0.051891766
       118           11.800000         2.586329715       321.218232145         6.724319246         9.310648962         0.051720148
       119           11.900000         2.759596701       342.737729272         6.550901521         9.310498223         0.052740512
       120           12.000000         2.956074230       367.139940632         6.354255661         9.310329891         0.051359376
       121           12.100000         3.173064465       394.089799123         6.137081894         9.310146359         0.051855812
       122           12.200000         3.407620545       423.221308812         5.902329634         9.309950179         0.051391732
       123           12.300000         3.656587582       454.142637673         5.653156497         9.309744079         0.053078230
       124           12.400000         3.916646133       486.441515673         5.392884877         9.309531010         0.108013045
       125           12.500000         4.184357489       519.690860525         5.124956123         9.309313612         0.106592838
       126           12.600000         4.456210189       553.454554003         4.852884798         9.309094988         0.103911538
       127           12.700000         4.728667101       587.293289611         4.580210937         9.308878038         0.085832438
       128           12.800000         4.998212458       620.770414530         4.310453245         9.308665703         0.051146375
       129           12.900000         5.261398172       653.457681480         4.047062602         9.308460773         0.052846037
       130           13.000000         5.514888727       684.940824411         3.793377195         9.308265923         0.053001903
       131           13.100000         5.755504176       714.824898563         3.552579527         9.308083703         0.052499514
       132           13.200000         5.980260647       742.739311717         3.327655819         9.307916465         0.091138052
       133           13.300000         6.186407917       768.342490333         3.121358662         9.307766579         0.105843499
       134           13.400000         6.371463626       791.326129043         2.936171785         9.307635411         0.106219724
       135           13.500000         6.533243476       811.418941346         2.774281357         9.307524834         0.117653502
       136           13.600000         6.669887196       828.389884325         2.637548990         9.307436186         0.101015851
       137           13.700000         6.779879923       842.050814334         2.527490590         9.307370512         0.097157819
       138           13.800000         6.862069106       852.258586322         2.445259455         9.307328560         0.052486481
       139           13.900000         6.915676394       858.916530304         2.391634332         9.307310726         0.051695842
       140           14.000000         6.940304351       861.975285254         2.367012791         9.307317142         0.083271056
       141           14.100000         6.935938354       861.433035098         2.371409200         9.307347554         0.054068513
       142           14.200000         6.902943123       857.335077402         2.404458357         9.307401481         0.051647862
       143           14.300000         6.842054485       849.772800769         2.465423562         9.307478047         0.105135411
       144           14.400000         6.754366412       838.882074990         2.553209733         9.307576145         0.112470113
       145           14.500000         6.641313376       824.841059178         2.666380918         9.307694294         0.079727545
       146           14.600000         6.504648583       807.867498978         2.803182575         9.307831158         0.080147831
       147           14.700000         6.346418057       788.215507364         2.961566598         9.307984655         0.106918836
       148           14.800000         6.168931121       766.171898846         3.139221696         9.308152817         0.099565074
       149           14.900000         5.974727878       742.052150194         3.333605532         9.308333409         0.356811665
       150           15.000000         5.766543781       716.196000822         3.541980216         9.308523997         0.072737111
       151           15.100000         5.547272058       688.962785009         3.761450082         9.308722140         0.056223875
       152           15.200000         5.319924387       660.726548744         3.989000915         9.308925302         0.096117362
       153           15.300000         5.087590356       631.871014154         4.221540503         9.309130860         0.104059409
       154           15.400000         4.853396446       602.784485311         4.455939771         9.309336217         0.148119032
       155           15.500000         4.620464654       573.854709606         4.689074131         9.309538785         0.089463197
       156           15.600000         4.391871639       545.463803456         4.917864401         9.309736039         0.058414537
       157           15.700000         4.170608960       517.983313958         5.139316595         9.309925554         0.086377265
       158           15.800000         3.959544692       491.769451675         5.350560311         9.310105003         0.116281873
       159           15.900000         3.761386936       467.158558695         5.548885278         9.310272215         0.103648441
       160           16.000000         3.578649851       444.462889494         5.731775310         9.310425160         0.111600930
       161           16.100000         3.413622503       423.966742904         5.896939516         9.310562019         0.057542291
       162           16.200000         3.268340899       405.922987903         6.042340327         9.310681227         0.056698265
       163           16.300000         3.144563578       390.550032152         6.166217802         9.310781380         0.092982944
       164           16.400000         3.043751123       378.029277951         6.267110259         9.310861382         0.128266765
       165           16.500000         2.967049726       368.503080648         6.343870613         9.310920339         0.084471773
       166           16.600000         2.915278940       362.073227446         6.395678694         9.310957634         0.078639096
       167           16.700000         2.888923926       358.799974700         6.422049006         9.310972932         0.092786239
       168           16.800000         2.888132077       358.701628244         6.422834082         9.310966159         0.057993283
       169           16.900000         2.912714108       361.754679199         6.398223402         9.310937510         0.055799693
       170           17.000000         2.962149524       367.894483040         6.348737932         9.310887457         0.122818185
       171           17.100000         3.035596281       377.016458971         6.275220492         9.310816774         0.060251024
       172           17.200000         3.131904723       388.977821561         6.178821795         9.310726519         0.056175031
       173           17.300000         3.249635353       403.599787431         6.060982670         9.310618023         0.090983696
       174           17.400000         3.387080180       420.670226682         5.923412695         9.310492875         0.103144292
       175           17.500000         3.542287441       439.946733272         5.768065503         9.310352944         0.101515844
       176           17.600000         3.713089251       461.160059286         5.597111049         9.310200300         0.057908371
       177           17.700000         3.897131785       484.017863201         5.412905481         9.310037266         0.070887197
       178           17.800000         4.091907563       508.208719775         5.217958691         9.309866254         0.108953079
       179           17.900000         4.294789551       533.406355258         5.014900270         9.309689821         0.098118862
       180           18.000000         4.503066476       559.274033793         4.806444083         9.309510559         0.091719279
       181           18.100000         4.713978788       585.469023402         4.595352187         9.309330975         0.081225367
       182           18.200000         4.924754960       611.647104611         4.384398656         9.309153615         0.087202171
       183           18.300000         5.132647573       637.467052209         4.176333264         9.308980837         0.102389680
       184           18.400000         5.334968608       662.595018226         3.973846309         9.308814918         0.070512973
       185           18.500000         5.529123622       686.708776785         3.779534085         9.308657707         0.104499813
       186           18.600000         5.712644406       709.501780079         3.595867306         9.308511712         0.056703296
       187           18.700000         5.883219616       730.686962706         3.425158782         9.308378398         0.132167559
       188           18.800000         6.038722895       750.000234451         3.269536435         9.308259331         0.058006901
       189           18.900000         6.177238306       767.203638534         3.130917587         9.308155893         0.120788995
       190           19.000000         6.297082870       782.088151813         3.010986350         9.308069219         0.091652984
       191           19.100000         6.396825633       794.476051910         2.911174546         9.308000179         0.056508880
       192           19.200000         6.475303406       804.222872408         2.832646078         9.307949484         0.057786930
       193           19.300000         6.531632906       811.218911004         2.776284739         9.307917645         0.100562772
       194           19.400000         6.565218981       815.390250573         2.742685849         9.307904830         0.068084810
       195           19.500000         6.575759435       816.699358964         2.732151620         9.307911055         0.055754092
       196           19.600000         6.563245644       815.145165128         2.744690419         9.307936063         0.077314524
       197           19.700000         6.527959616       810.762693865         2.780019789         9.307979405         0.065104645
       198           19.800000         6.470467568       803.622268702         2.837572878         9.308040447         0.054204011
       199           19.900000         6.391610082       793.828288430         2.916508242         9.308118325         0.051968476
       200           20.000000         6.292489000       781.517600124         3.015722983         9.308211982         0.063174926
