 DBCSR| Multiplication driver                                               XSMM
 DBCSR| Multrec recursion limit                                              512
 DBCSR| Multiplication stack size                                           1000
 DBCSR| Maximum elements for images                                    UNLIMITED
 DBCSR| Randmat seed                                                    12341313
 DBCSR| Multiplication size stacks                                             3


  **** **** ******  **  PROGRAM STARTED AT               2021-04-29 14:23:29.577
 ***** ** ***  *** **   PROGRAM STARTED ON               bulstake.phys.ucl.ac.uk
 **    ****   ******    PROGRAM STARTED BY                             sgiannini
 ***** **    ** ** **   PROGRAM PROCESS ID                                 12957
  **** **  *******  **  PROGRAM STARTED IN /scratch/sgiannini/REG_TEST_MERGING/3
                                           7-071a0540f1_code_extension_V3_ADJ/ru
                                           n-fssh-0-sulf-DCVSN5

 CP2K| version string:                    CP2K version 4.0 (Development Version)
 CP2K| source code revision number:                                  git:1080fc1
 CP2K| cp2kflags: libint fftw3 libxc quip smm_dnn smm libxsmm libderiv_max_am1=5
 CP2K|             libint_max_am=6
 CP2K| is freely available from                            https://www.cp2k.org/
 CP2K| Program compiled at                          Thu 29 Apr 10:11:08 BST 2021
 CP2K| Program compiled on                               bulstake.phys.ucl.ac.uk
 CP2K| Program compiled for                                         local_hetero
 CP2K| Data directory path           /scratch/sgiannini/flavoured-cptk/cp2k/data
 CP2K| Input file name                                                   run.inp

 GLOBAL| Force Environment number                                              1
 GLOBAL| Basis set file name                                           POTENTIAL
 GLOBAL| MM Potential file name                                     MM_POTENTIAL
 GLOBAL| Coordinate file name                                       pos-init.xyz
 GLOBAL| Force Environment number                                              2
 GLOBAL| Basis set file name                                           POTENTIAL
 GLOBAL| MM Potential file name                                     MM_POTENTIAL
 GLOBAL| Coordinate file name                                       pos-init.xyz
 GLOBAL| Force Environment number                                              3
 GLOBAL| Basis set file name                                           POTENTIAL
 GLOBAL| MM Potential file name                                     MM_POTENTIAL
 GLOBAL| Coordinate file name                                       pos-init.xyz
 GLOBAL| Method name                                                        CP2K
 GLOBAL| Project name                                                        run
 GLOBAL| Preferred FFT library                                             FFTW3
 GLOBAL| Preferred diagonalization lib.                                       SL
 GLOBAL| Run type                                                             MD
 GLOBAL| All-to-all communication in single precision                          F
 GLOBAL| FFTs using library dependent lengths                                  F
 GLOBAL| Global print level                                                  LOW
 GLOBAL| Total number of message passing processes                             1
 GLOBAL| Number of threads for this process                                    1
 GLOBAL| This output is from process                                           0
 GLOBAL| CPU model name :  Intel(R) Xeon(R) CPU E5-2687W v4 @ 3.00GHz

 MEMORY| system memory details [Kb]
 MEMORY|                        rank 0           min           max       average
 MEMORY| MemTotal             65894336      65894336      65894336      65894336
 MEMORY| MemFree               6781616       6781616       6781616       6781616
 MEMORY| Buffers                  8744          8744          8744          8744
 MEMORY| Cached               40779116      40779116      40779116      40779116
 MEMORY| Slab                  3236700       3236700       3236700       3236700
 MEMORY| SReclaimable          2479316       2479316       2479316       2479316
 MEMORY| MemLikelyFree        50048792      50048792      50048792      50048792

 TOTAL NUMBER OF FORCE EVALS           3
 NOTE:n_subforce_eval           2
 DECOMP =  T
 DECOMP =  T

 MD| Molecular Dynamics Protocol 
 MD| Ensemble Type                                                           NVE
 MD| Number of Time Steps                                                    200
 MD| Time Step [fs]                                                         0.10
 MD| Temperature [K]                                                      300.00
 MD| Temperature tolerance [K]                                              0.00
 MD| Print MD information every                                        1 step(s)
 MD| File type     Print frequency[steps]                             File names
 MD| Coordinates            1                                      run-pos-1.xyz
 MD| Velocities             1                                      run-vel-1.xyz
 MD| Energies               1                                         run-1.ener
 MD| Dump                 200                                      run-1.restart

 ROT| Rotational Analysis Info 
 ROT| Principal axes and moments of inertia in atomic units:
 ROT|                                1                 2                 3
 ROT| EIGENVALUES            0.824108463E+10   0.346166879E+11   0.388392190E+11
 ROT|      X                    -0.089486545      -0.334542892      -0.938122173
 ROT|      Y                     0.984657769      -0.171384656      -0.032808204
 ROT|      Z                     0.149803995       0.926665178      -0.344746879
 ROT| Numer of Rotovibrational vectors:     6

 Calculation of degrees of freedom
                                                      Number of atoms:      1696
                                 Number of Intramolecular constraints:         0
                                 Number of Intermolecular constraints:         0
                                  Invariants(translation + rotations):         3
                                                   Degrees of freedom:      5085


 Restraints Information
                                  Number of Intramolecular restraints:         0
                                  Number of Intermolecular restraints:         0

 *** WARNING in motion/thermostat/thermostat_methods.F:280 :: Thermostat ***
 *** for Particles has been defined but the ensemble provided does not   ***
 *** support thermostat for Particles! Ignoring thermostat input.        ***

 ************************** Velocities initialization **************************
 Initial Temperature                                                    248.47 K
 COM velocity:           -0.000000000001      0.000000000001     -0.000000000000
 *******************************************************************************

 FIRST CALL: force_env_calc_energy_force
 RESTART_KEY F
 ACTIVE STATE           1
 FOBSH| ACTIVE STATE =            1

 ENERGY| Total FORCE_EVAL ( MIXED ) energy (a.u.):             7.235207804622587

 STEP NUMBER                  =            0
 CPU TIME [s]                 =    0.0000000000000000        0.0000000000000000     

 MD_ENERGIES| Initialization proceeding


 ******************************** GO CP2K GO! **********************************
 INITIAL POTENTIAL ENERGY[hartree]     =                      0.723520780462E+01
 INITIAL KINETIC ENERGY[hartree]       =                      0.200058441000E+01
 INITIAL TEMPERATURE[K]                =                                 248.470
 INITIAL VOLUME[bohr^3]                =                      0.133470247634E+06
 INITIAL CELL LNTHS[bohr]   =      0.2774571E+02   0.1046338E+03   0.4734671E+02
 INITIAL CELL ANGLS[deg]    =      0.9000000E+02   0.1038281E+03   0.9000000E+02
 ******************************** GO CP2K GO! **********************************
 FOBSH| *** OFF-DIAGONAL GRADIENT CALCULATION
 FOBSH| Put former active state           1 in new active state           1
 RANDOM_NUMBER_HOPPING_PROBA  0.25416817536274450     
 FOBSH| ACTIVE STATE =            1

 ENERGY| Total FORCE_EVAL ( MIXED ) energy (a.u.):             7.382332724019162

 FOBSH| *** WARNING: Projection to avoid spurious transfer get lambda =    1.0676670808077990      ***
 FOBSH| CASE1: no hop and no trivial crossing
 ENTER integrator.F
 STEP NUMBER                  =            1
 CPU TIME [s]                 =    1.3636619038879871        1.3636619038879871     

 *******************************************************************************
 ENSEMBLE TYPE                =                                              NVE
 STEP NUMBER                  =                                                1
 TIME [fs]                    =                                         0.100000
 CONSERVED QUANTITY [hartree] =                               0.923585523138E+01

                                              INSTANTANEOUS             AVERAGES
 CPU TIME [s]                 =                        1.36                 1.36
 ENERGY DRIFT PER ATOM [K]    =          0.117329572663E-01   0.000000000000E+00
 POTENTIAL ENERGY[hartree]    =          0.738233272402E+01   0.738233272402E+01
 KINETIC ENERGY [hartree]     =          0.185352250736E+01   0.185352250736E+01
 TEMPERATURE [K]              =                     230.205              230.205
 *******************************************************************************

 FOBSH| Put former active state           1 in new active state           1
 RANDOM_NUMBER_HOPPING_PROBA  0.57267287283110380     
 FOBSH| ACTIVE STATE =            1

 ENERGY| Total FORCE_EVAL ( MIXED ) energy (a.u.):             7.491008795805223

 FOBSH| *** WARNING: Projection to avoid spurious transfer get lambda =    1.0654852263739460      ***
 FOBSH| CASE1: no hop and no trivial crossing
 ENTER integrator.F
 STEP NUMBER                  =            2
 CPU TIME [s]                 =   0.19448081217706203       0.77907135803252459     

 *******************************************************************************
 ENSEMBLE TYPE                =                                              NVE
 STEP NUMBER                  =                                                2
 TIME [fs]                    =                                         0.200000
 CONSERVED QUANTITY [hartree] =                               0.923593168987E+01

                                              INSTANTANEOUS             AVERAGES
 CPU TIME [s]                 =                        0.19                 0.78
 ENERGY DRIFT PER ATOM [K]    =          0.259686007700E-01   0.129843003850E-01
 POTENTIAL ENERGY[hartree]    =          0.749100879581E+01   0.743667075991E+01
 KINETIC ENERGY [hartree]     =          0.174492289406E+01   0.179922270071E+01
 TEMPERATURE [K]              =                     216.717              223.461
 *******************************************************************************

 FOBSH| Put former active state           1 in new active state           1
 RANDOM_NUMBER_HOPPING_PROBA  0.70124607809334638     
 FOBSH| ACTIVE STATE =            1

 ENERGY| Total FORCE_EVAL ( MIXED ) energy (a.u.):             7.559888618669858

 FOBSH| *** WARNING: Projection to avoid spurious transfer get lambda =    1.0016290489377362      ***
 FOBSH| CASE1: no hop and no trivial crossing
 ENTER integrator.F
 STEP NUMBER                  =            3
 CPU TIME [s]                 =   0.19948244467377663       0.58587505357960856     

 *******************************************************************************
 ENSEMBLE TYPE                =                                              NVE
 STEP NUMBER                  =                                                3
 TIME [fs]                    =                                         0.300000
 CONSERVED QUANTITY [hartree] =                               0.923590986029E+01

                                              INSTANTANEOUS             AVERAGES
 CPU TIME [s]                 =                        0.20                 0.59
 ENERGY DRIFT PER ATOM [K]    =          0.219041977443E-01   0.159575995048E-01
 POTENTIAL ENERGY[hartree]    =          0.755988861867E+01   0.747774337950E+01
 KINETIC ENERGY [hartree]     =          0.167602124162E+01   0.175815554768E+01
 TEMPERATURE [K]              =                     208.159              218.360
 *******************************************************************************

 FOBSH| Put former active state           1 in new active state           1
 RANDOM_NUMBER_HOPPING_PROBA  0.44587149488303601     
 FOBSH| ACTIVE STATE =            1

 ENERGY| Total FORCE_EVAL ( MIXED ) energy (a.u.):             7.588359049172760

 FOBSH| *** WARNING: Projection to avoid spurious transfer get lambda =   0.99170623007168046      ***
 FOBSH| CASE1: no hop and no trivial crossing
 ENTER integrator.F
 STEP NUMBER                  =            4
 CPU TIME [s]                 =   0.17748872004449368       0.48377847019582987     

 *******************************************************************************
 ENSEMBLE TYPE                =                                              NVE
 STEP NUMBER                  =                                                4
 TIME [fs]                    =                                         0.400000
 CONSERVED QUANTITY [hartree] =                               0.923588651999E+01

                                              INSTANTANEOUS             AVERAGES
 CPU TIME [s]                 =                        0.18                 0.48
 ENERGY DRIFT PER ATOM [K]    =          0.175585160208E-01   0.163578286338E-01
 POTENTIAL ENERGY[hartree]    =          0.758835904917E+01   0.750539729692E+01
 KINETIC ENERGY [hartree]     =          0.164752747081E+01   0.173049852847E+01
 TEMPERATURE [K]              =                     204.620              214.925
 *******************************************************************************

 FOBSH| Put former active state           1 in new active state           1
 RANDOM_NUMBER_HOPPING_PROBA  0.99318002992808974     
 FOBSH| ACTIVE STATE =            1

 ENERGY| Total FORCE_EVAL ( MIXED ) energy (a.u.):             7.576243862640053

 FOBSH| *** WARNING: Projection to avoid spurious transfer get lambda =   0.97773302855360356      ***
 FOBSH| CASE1: no hop and no trivial crossing
 ENTER integrator.F
 STEP NUMBER                  =            5
 CPU TIME [s]                 =   0.14660603553056717       0.41634398326277733     

 *******************************************************************************
 ENSEMBLE TYPE                =                                              NVE
 STEP NUMBER                  =                                                5
 TIME [fs]                    =                                         0.500000
 CONSERVED QUANTITY [hartree] =                               0.923584539431E+01

                                              INSTANTANEOUS             AVERAGES
 CPU TIME [s]                 =                        0.15                 0.42
 ENERGY DRIFT PER ATOM [K]    =          0.990141436758E-02   0.150665457805E-01
 POTENTIAL ENERGY[hartree]    =          0.757624386264E+01   0.751956661006E+01
 KINETIC ENERGY [hartree]     =          0.165960153167E+01   0.171631912911E+01
 TEMPERATURE [K]              =                     206.120              213.164
 *******************************************************************************

 FOBSH| Put former active state           1 in new active state           1
 RANDOM_NUMBER_HOPPING_PROBA  0.52949100177132724     
 FOBSH| ACTIVE STATE =            1

 ENERGY| Total FORCE_EVAL ( MIXED ) energy (a.u.):             7.523932852010677

 FOBSH| *** WARNING: Projection to avoid spurious transfer get lambda =   0.95935687356301658      ***
 FOBSH| CASE1: no hop and no trivial crossing
 ENTER integrator.F
 STEP NUMBER                  =            6
 CPU TIME [s]                 =   0.12927087210118771       0.36849846473584569     

 *******************************************************************************
 ENSEMBLE TYPE                =                                              NVE
 STEP NUMBER                  =                                                6
 TIME [fs]                    =                                         0.600000
 CONSERVED QUANTITY [hartree] =                               0.923578583490E+01

                                              INSTANTANEOUS             AVERAGES
 CPU TIME [s]                 =                        0.13                 0.37
 ENERGY DRIFT PER ATOM [K]    =         -0.118782637447E-02   0.123574837547E-01
 POTENTIAL ENERGY[hartree]    =          0.752393285201E+01   0.752029431705E+01
 KINETIC ENERGY [hartree]     =          0.171185298289E+01   0.171557477140E+01
 TEMPERATURE [K]              =                     212.610              213.072
 *******************************************************************************

 FOBSH| Put former active state           1 in new active state           1
 RANDOM_NUMBER_HOPPING_PROBA  0.98494358986342956     
 FOBSH| ACTIVE STATE =            1

 ENERGY| Total FORCE_EVAL ( MIXED ) energy (a.u.):             7.432360719218815

 FOBSH| *** WARNING: Projection to avoid spurious transfer get lambda =    1.0189294161850984      ***
 FOBSH| CASE1: no hop and no trivial crossing
 ENTER integrator.F
 STEP NUMBER                  =            7
 CPU TIME [s]                 =   0.12805665470659733       0.33414963473166737     

 *******************************************************************************
 ENSEMBLE TYPE                =                                              NVE
 STEP NUMBER                  =                                                7
 TIME [fs]                    =                                         0.700000
 CONSERVED QUANTITY [hartree] =                               0.923570907962E+01

                                              INSTANTANEOUS             AVERAGES
 CPU TIME [s]                 =                        0.13                 0.33
 ENERGY DRIFT PER ATOM [K]    =         -0.154787301978E-01   0.838088176150E-02
 POTENTIAL ENERGY[hartree]    =          0.743236071922E+01   0.750773237451E+01
 KINETIC ENERGY [hartree]     =          0.180334836040E+01   0.172811385555E+01
 TEMPERATURE [K]              =                     223.973              214.629
 *******************************************************************************

 FOBSH| Put former active state           1 in new active state           1
 RANDOM_NUMBER_HOPPING_PROBA  0.91904792263218393     
 FOBSH| ACTIVE STATE =            1

 ENERGY| Total FORCE_EVAL ( MIXED ) energy (a.u.):             7.302990715889312

 FOBSH| *** WARNING: Projection to avoid spurious transfer get lambda =    1.0146056475279497      ***
 FOBSH| CASE1: no hop and no trivial crossing
 ENTER integrator.F
 STEP NUMBER                  =            8
 CPU TIME [s]                 =   0.13478472083806992       0.30922902049496770     

 *******************************************************************************
 ENSEMBLE TYPE                =                                              NVE
 STEP NUMBER                  =                                                8
 TIME [fs]                    =                                         0.800000
 CONSERVED QUANTITY [hartree] =                               0.923561714601E+01

                                              INSTANTANEOUS             AVERAGES
 CPU TIME [s]                 =                        0.13                 0.31
 ENERGY DRIFT PER ATOM [K]    =         -0.325956546431E-01   0.325881471093E-02
 POTENTIAL ENERGY[hartree]    =          0.730299071589E+01   0.748213966718E+01
 KINETIC ENERGY [hartree]     =          0.193262643012E+01   0.175367792737E+01
 TEMPERATURE [K]              =                     240.029              217.804
 *******************************************************************************

 FOBSH| Put former active state           1 in new active state           1
 RANDOM_NUMBER_HOPPING_PROBA  0.90271135064865493     
 FOBSH| ACTIVE STATE =            1

 ENERGY| Total FORCE_EVAL ( MIXED ) energy (a.u.):             7.137791631767877

 FOBSH| *** WARNING: Projection to avoid spurious transfer get lambda =    1.0187542670091350      ***
 FOBSH| CASE1: no hop and no trivial crossing
 ENTER integrator.F
 STEP NUMBER                  =            9
 CPU TIME [s]                 =   0.12895882874727249       0.28919899918966824     

 *******************************************************************************
 ENSEMBLE TYPE                =                                              NVE
 STEP NUMBER                  =                                                9
 TIME [fs]                    =                                         0.900000
 CONSERVED QUANTITY [hartree] =                               0.923551250228E+01

                                              INSTANTANEOUS             AVERAGES
 CPU TIME [s]                 =                        0.13                 0.29
 ENERGY DRIFT PER ATOM [K]    =         -0.520790488722E-01  -0.288983679831E-02
 POTENTIAL ENERGY[hartree]    =          0.713779163177E+01   0.744387877435E+01
 KINETIC ENERGY [hartree]     =          0.209772087051E+01   0.179190492105E+01
 TEMPERATURE [K]              =                     260.534              222.552
 *******************************************************************************

 FOBSH| Put former active state           1 in new active state           1
 RANDOM_NUMBER_HOPPING_PROBA  0.35228913307100063     
 FOBSH| ACTIVE STATE =            1

 ENERGY| Total FORCE_EVAL ( MIXED ) energy (a.u.):             6.939208119818429

 FOBSH| *** WARNING: Projection to avoid spurious transfer get lambda =    1.0243279895755042      ***
 FOBSH| CASE1: no hop and no trivial crossing
 ENTER integrator.F
 STEP NUMBER                  =           10
 CPU TIME [s]                 =   0.14385453052818775       0.27466455232352022     

 *******************************************************************************
 ENSEMBLE TYPE                =                                              NVE
 STEP NUMBER                  =                                               10
 TIME [fs]                    =                                         1.000000
 CONSERVED QUANTITY [hartree] =                               0.923539802119E+01

                                              INSTANTANEOUS             AVERAGES
 CPU TIME [s]                 =                        0.14                 0.27
 ENERGY DRIFT PER ATOM [K]    =         -0.733940395056E-01  -0.994025706904E-02
 POTENTIAL ENERGY[hartree]    =          0.693920811982E+01   0.739341170890E+01
 KINETIC ENERGY [hartree]     =          0.229618990138E+01   0.184233341908E+01
 TEMPERATURE [K]              =                     285.183              228.815
 *******************************************************************************

 FOBSH| Put former active state           1 in new active state           1
 RANDOM_NUMBER_HOPPING_PROBA  0.85881859311700515     
 FOBSH| ACTIVE STATE =            1

 ENERGY| Total FORCE_EVAL ( MIXED ) energy (a.u.):             6.710124231332496

 FOBSH| *** WARNING: Projection to avoid spurious transfer get lambda =    1.0281906074702833      ***
 FOBSH| CASE1: no hop and no trivial crossing
 ENTER integrator.F
 STEP NUMBER                  =           11
 CPU TIME [s]                 =   0.12742981687188148       0.26127957637337124     

 *******************************************************************************
 ENSEMBLE TYPE                =                                              NVE
 STEP NUMBER                  =                                               11
 TIME [fs]                    =                                         1.100000
 CONSERVED QUANTITY [hartree] =                               0.923527685831E+01

                                              INSTANTANEOUS             AVERAGES
 CPU TIME [s]                 =                        0.13                 0.26
 ENERGY DRIFT PER ATOM [K]    =         -0.959531005683E-01  -0.177596064781E-01
 POTENTIAL ENERGY[hartree]    =          0.671012423133E+01   0.733129466549E+01
 KINETIC ENERGY [hartree]     =          0.252515262698E+01   0.190440789253E+01
 TEMPERATURE [K]              =                     313.620              236.525
 *******************************************************************************

 FOBSH| Put former active state           1 in new active state           1
 RANDOM_NUMBER_HOPPING_PROBA  0.44990018116758157     
 FOBSH| ACTIVE STATE =            1

 ENERGY| Total FORCE_EVAL ( MIXED ) energy (a.u.):             6.453821178915612

 FOBSH| *** WARNING: Projection to avoid spurious transfer get lambda =    1.0292063806681406      ***
 FOBSH| CASE1: no hop and no trivial crossing
 ENTER integrator.F
 STEP NUMBER                  =           12
 CPU TIME [s]                 =   0.12622174434363842       0.25002475703756016     

 *******************************************************************************
 ENSEMBLE TYPE                =                                              NVE
 STEP NUMBER                  =                                               12
 TIME [fs]                    =                                         1.200000
 CONSERVED QUANTITY [hartree] =                               0.923515242540E+01

                                              INSTANTANEOUS             AVERAGES
 CPU TIME [s]                 =                        0.13                 0.25
 ENERGY DRIFT PER ATOM [K]    =         -0.119121000744E+00  -0.262063893335E-01
 POTENTIAL ENERGY[hartree]    =          0.645382117892E+01   0.725817187494E+01
 KINETIC ENERGY [hartree]     =          0.278133124648E+01   0.197748483869E+01
 TEMPERATURE [K]              =                     345.437              245.601
 *******************************************************************************

 FOBSH| Put former active state           1 in new active state           1
 RANDOM_NUMBER_HOPPING_PROBA  0.92520671115326614     
 FOBSH| ACTIVE STATE =            1

 ENERGY| Total FORCE_EVAL ( MIXED ) energy (a.u.):             6.173929870967827

 FOBSH| *** WARNING: Projection to avoid spurious transfer get lambda =    1.0271884516353638      ***
 FOBSH| CASE1: no hop and no trivial crossing
 ENTER integrator.F
 STEP NUMBER                  =           13
 CPU TIME [s]                 =   0.15250611491501331       0.24252332302813348     

 *******************************************************************************
 ENSEMBLE TYPE                =                                              NVE
 STEP NUMBER                  =                                               13
 TIME [fs]                    =                                         1.300000
 CONSERVED QUANTITY [hartree] =                               0.923502836028E+01

                                              INSTANTANEOUS             AVERAGES
 CPU TIME [s]                 =                        0.15                 0.24
 ENERGY DRIFT PER ATOM [K]    =         -0.142220422012E+00  -0.351305456934E-01
 POTENTIAL ENERGY[hartree]    =          0.617392987097E+01   0.717476864386E+01
 KINETIC ENERGY [hartree]     =          0.306109848931E+01   0.206083973489E+01
 TEMPERATURE [K]              =                     380.184              255.953
 *******************************************************************************

 FOBSH| Put former active state           1 in new active state           1
 RANDOM_NUMBER_HOPPING_PROBA  0.47449029509303664     
 FOBSH| ACTIVE STATE =            1

 ENERGY| Total FORCE_EVAL ( MIXED ) energy (a.u.):             5.874378893639935

 FOBSH| *** WARNING: Projection to avoid spurious transfer get lambda =    1.0223418841930341      ***
 FOBSH| CASE1: no hop and no trivial crossing
 ENTER integrator.F
 STEP NUMBER                  =           14
 CPU TIME [s]                 =   0.16814920119941235       0.23721088575465338     

 *******************************************************************************
 ENSEMBLE TYPE                =                                              NVE
 STEP NUMBER                  =                                               14
 TIME [fs]                    =                                         1.400000
 CONSERVED QUANTITY [hartree] =                               0.923490837316E+01

                                              INSTANTANEOUS             AVERAGES
 CPU TIME [s]                 =                        0.17                 0.24
 ENERGY DRIFT PER ATOM [K]    =         -0.164560569602E+00  -0.443755474011E-01
 POTENTIAL ENERGY[hartree]    =          0.587437889364E+01   0.708188366170E+01
 KINETIC ENERGY [hartree]     =          0.336052947952E+01   0.215367471665E+01
 TEMPERATURE [K]              =                     417.373              267.483
 *******************************************************************************

 FOBSH| Put former active state           1 in new active state           1
 RANDOM_NUMBER_HOPPING_PROBA  0.46668003640823247     
 FOBSH| ACTIVE STATE =            1

 ENERGY| Total FORCE_EVAL ( MIXED ) energy (a.u.):             5.559339020813851

 FOBSH| *** WARNING: Projection to avoid spurious transfer get lambda =    1.0150203999648999      ***
 FOBSH| CASE1: no hop and no trivial crossing
 ENTER integrator.F
 STEP NUMBER                  =           15
 CPU TIME [s]                 =   0.15117213502526283       0.23147496903936068     

 *******************************************************************************
 ENSEMBLE TYPE                =                                              NVE
 STEP NUMBER                  =                                               15
 TIME [fs]                    =                                         1.500000
 CONSERVED QUANTITY [hartree] =                               0.923479634760E+01

                                              INSTANTANEOUS             AVERAGES
 CPU TIME [s]                 =                        0.15                 0.23
 ENERGY DRIFT PER ATOM [K]    =         -0.185418371932E+00  -0.537784023699E-01
 POTENTIAL ENERGY[hartree]    =          0.555933902081E+01   0.698038068565E+01
 KINETIC ENERGY [hartree]     =          0.367545732678E+01   0.225512689066E+01
 TEMPERATURE [K]              =                     456.486              280.083
 *******************************************************************************

 FOBSH| Put former active state           1 in new active state           1
 RANDOM_NUMBER_HOPPING_PROBA  0.62298518199960662     
 FOBSH| ACTIVE STATE =            1

 ENERGY| Total FORCE_EVAL ( MIXED ) energy (a.u.):             5.233164675849332

 FOBSH| *** WARNING: Projection to avoid spurious transfer get lambda =   0.98693299425948633      ***
 FOBSH| CASE1: no hop and no trivial crossing
 ENTER integrator.F
 STEP NUMBER                  =           16
 CPU TIME [s]                 =   0.12504931725561619       0.22482336580287665     

 *******************************************************************************
 ENSEMBLE TYPE                =                                              NVE
 STEP NUMBER                  =                                               16
 TIME [fs]                    =                                         1.600000
 CONSERVED QUANTITY [hartree] =                               0.923469621508E+01

                                              INSTANTANEOUS             AVERAGES
 CPU TIME [s]                 =                        0.13                 0.22
 ENERGY DRIFT PER ATOM [K]    =         -0.204061833739E+00  -0.631711168304E-01
 POTENTIAL ENERGY[hartree]    =          0.523316467585E+01   0.687117968503E+01
 KINETIC ENERGY [hartree]     =          0.400153153923E+01   0.236427718120E+01
 TEMPERATURE [K]              =                     496.984              293.640
 *******************************************************************************

 FOBSH| Put former active state           1 in new active state           1
 RANDOM_NUMBER_HOPPING_PROBA   3.7052546326753137E-002
 FOBSH| ACTIVE STATE =            1

 ENERGY| Total FORCE_EVAL ( MIXED ) energy (a.u.):             4.900333445700782

 FOBSH| *** WARNING: Projection to avoid spurious transfer get lambda =   0.98894030986371828      ***
 FOBSH| CASE1: no hop and no trivial crossing
 ENTER integrator.F
 STEP NUMBER                  =           17
 CPU TIME [s]                 =   0.13280458189547062       0.21941049616126454     

 *******************************************************************************
 ENSEMBLE TYPE                =                                              NVE
 STEP NUMBER                  =                                               17
 TIME [fs]                    =                                         1.700000
 CONSERVED QUANTITY [hartree] =                               0.923461189034E+01

                                              INSTANTANEOUS             AVERAGES
 CPU TIME [s]                 =                        0.13                 0.22
 ENERGY DRIFT PER ATOM [K]    =         -0.219762078828E+00  -0.723823498891E-01
 POTENTIAL ENERGY[hartree]    =          0.490033344570E+01   0.675524755331E+01
 KINETIC ENERGY [hartree]     =          0.433427844464E+01   0.248015960846E+01
 TEMPERATURE [K]              =                     538.311              308.032
 *******************************************************************************

 FOBSH| Put former active state           1 in new active state           1
 RANDOM_NUMBER_HOPPING_PROBA   3.0732306044623178E-002
 FOBSH| ACTIVE STATE =            1

 ENERGY| Total FORCE_EVAL ( MIXED ) energy (a.u.):             4.565384490271780

 FOBSH| *** WARNING: Projection to avoid spurious transfer get lambda =   0.99405072885594103      ***
 FOBSH| CASE1: no hop and no trivial crossing
 ENTER integrator.F
 STEP NUMBER                  =           18
 CPU TIME [s]                 =   0.14072648249566555       0.21503916206873125     

 *******************************************************************************
 ENSEMBLE TYPE                =                                              NVE
 STEP NUMBER                  =                                               18
 TIME [fs]                    =                                         1.800000
 CONSERVED QUANTITY [hartree] =                               0.923454725142E+01

                                              INSTANTANEOUS             AVERAGES
 CPU TIME [s]                 =                        0.14                 0.22
 ENERGY DRIFT PER ATOM [K]    =         -0.231797060904E+00  -0.812387227233E-01
 POTENTIAL ENERGY[hartree]    =          0.456538449027E+01   0.663358849425E+01
 KINETIC ENERGY [hartree]     =          0.466916276115E+01   0.260177089472E+01
 TEMPERATURE [K]              =                     579.903              323.136
 *******************************************************************************

 FOBSH| Put former active state           1 in new active state           1
 RANDOM_NUMBER_HOPPING_PROBA  0.73158312779136259     
 FOBSH| ACTIVE STATE =            1

 ENERGY| Total FORCE_EVAL ( MIXED ) energy (a.u.):             4.232856750550913

 FOBSH| CASE1: no hop and no trivial crossing
 ENTER integrator.F
 STEP NUMBER                  =           19
 CPU TIME [s]                 =   0.12351304106414318       0.21022199780533188     

 *******************************************************************************
 ENSEMBLE TYPE                =                                              NVE
 STEP NUMBER                  =                                               19
 TIME [fs]                    =                                         1.900000
 CONSERVED QUANTITY [hartree] =                               0.923450611636E+01

                                              INSTANTANEOUS             AVERAGES
 CPU TIME [s]                 =                        0.12                 0.21
 ENERGY DRIFT PER ATOM [K]    =         -0.239455911656E+00  -0.895659431934E-01
 POTENTIAL ENERGY[hartree]    =          0.423285675055E+01   0.650723419195E+01
 KINETIC ENERGY [hartree]     =          0.500164936581E+01   0.272808028793E+01
 TEMPERATURE [K]              =                     621.197              338.823
 *******************************************************************************

 FOBSH| Put former active state           1 in new active state           1
 RANDOM_NUMBER_HOPPING_PROBA  0.21590178387881515     
 FOBSH| ACTIVE STATE =            1

 ENERGY| Total FORCE_EVAL ( MIXED ) energy (a.u.):             3.907227724998168

 FOBSH| *** WARNING: Projection to avoid spurious transfer get lambda =    1.0051790509914691      ***
 FOBSH| CASE1: no hop and no trivial crossing
 ENTER integrator.F
 STEP NUMBER                  =           20
 CPU TIME [s]                 =   0.13150772824883461       0.20628628432750704     

 *******************************************************************************
 ENSEMBLE TYPE                =                                              NVE
 STEP NUMBER                  =                                               20
 TIME [fs]                    =                                         2.000000
 CONSERVED QUANTITY [hartree] =                               0.923449220749E+01

                                              INSTANTANEOUS             AVERAGES
 CPU TIME [s]                 =                        0.13                 0.21
 ENERGY DRIFT PER ATOM [K]    =         -0.242045574307E+00  -0.971899247491E-01
 POTENTIAL ENERGY[hartree]    =          0.390722772500E+01   0.637723386860E+01
 KINETIC ENERGY [hartree]     =          0.532726448249E+01   0.285803949766E+01
 TEMPERATURE [K]              =                     661.638              354.964
 *******************************************************************************

 FOBSH| Put former active state           1 in new active state           1
 RANDOM_NUMBER_HOPPING_PROBA  0.64071458398099845     
 FOBSH| ACTIVE STATE =            1

 ENERGY| Total FORCE_EVAL ( MIXED ) energy (a.u.):             3.592853497032165

 FOBSH| *** WARNING: Projection to avoid spurious transfer get lambda =    1.0089643160061934      ***
 FOBSH| CASE1: no hop and no trivial crossing
 ENTER integrator.F
 STEP NUMBER                  =           21
 CPU TIME [s]                 =   0.15156414173543453       0.20368046801359879     

 *******************************************************************************
 ENSEMBLE TYPE                =                                              NVE
 STEP NUMBER                  =                                               21
 TIME [fs]                    =                                         2.100000
 CONSERVED QUANTITY [hartree] =                               0.923450906801E+01

                                              INSTANTANEOUS             AVERAGES
 CPU TIME [s]                 =                        0.15                 0.20
 ENERGY DRIFT PER ATOM [K]    =         -0.238906349130E+00  -0.103938325910E+00
 POTENTIAL ENERGY[hartree]    =          0.359285349703E+01   0.624464432710E+01
 KINETIC ENERGY [hartree]     =          0.564165557098E+01   0.299059264401E+01
 TEMPERATURE [K]              =                     700.685              371.427
 *******************************************************************************

 FOBSH| Put former active state           1 in new active state           1
 RANDOM_NUMBER_HOPPING_PROBA  0.52111213360711095     
 FOBSH| ACTIVE STATE =            1

 ENERGY| Total FORCE_EVAL ( MIXED ) energy (a.u.):             3.293911028988736

 FOBSH| *** WARNING: Projection to avoid spurious transfer get lambda =    1.0110594454819333      ***
 FOBSH| CASE1: no hop and no trivial crossing
 ENTER integrator.F
 STEP NUMBER                  =           22
 CPU TIME [s]                 =   0.14000846818089485       0.20078628620302136     

 *******************************************************************************
 ENSEMBLE TYPE                =                                              NVE
 STEP NUMBER                  =                                               22
 TIME [fs]                    =                                         2.200000
 CONSERVED QUANTITY [hartree] =                               0.923456006654E+01

                                              INSTANTANEOUS             AVERAGES
 CPU TIME [s]                 =                        0.14                 0.20
 ENERGY DRIFT PER ATOM [K]    =         -0.229411041445E+00  -0.109641631162E+00
 POTENTIAL ENERGY[hartree]    =          0.329391102899E+01   0.611052008628E+01
 KINETIC ENERGY [hartree]     =          0.594064903755E+01   0.312468611644E+01
 TEMPERATURE [K]              =                     737.820              388.081
 *******************************************************************************

 FOBSH| Put former active state           1 in new active state           1
 RANDOM_NUMBER_HOPPING_PROBA  0.99023651703474946     
 FOBSH| ACTIVE STATE =            1

 ENERGY| Total FORCE_EVAL ( MIXED ) energy (a.u.):             3.014343428821527

 FOBSH| *** WARNING: Projection to avoid spurious transfer get lambda =    1.0114996500091911      ***
 FOBSH| CASE1: no hop and no trivial crossing
 ENTER integrator.F
 STEP NUMBER                  =           23
 CPU TIME [s]                 =   0.14631995931267738       0.19841818503387595     

 *******************************************************************************
 ENSEMBLE TYPE                =                                              NVE
 STEP NUMBER                  =                                               23
 TIME [fs]                    =                                         2.300000
 CONSERVED QUANTITY [hartree] =                               0.923464832092E+01

                                              INSTANTANEOUS             AVERAGES
 CPU TIME [s]                 =                        0.15                 0.20
 ENERGY DRIFT PER ATOM [K]    =         -0.212979145846E+00  -0.114134566583E+00
 POTENTIAL ENERGY[hartree]    =          0.301434342882E+01   0.597590370987E+01
 KINETIC ENERGY [hartree]     =          0.622030489210E+01   0.325927823712E+01
 TEMPERATURE [K]              =                     772.552              404.797
 *******************************************************************************

 FOBSH| Put former active state           1 in new active state           1
 RANDOM_NUMBER_HOPPING_PROBA  0.44679221835284999     
 FOBSH| ACTIVE STATE =            1

 ENERGY| Total FORCE_EVAL ( MIXED ) energy (a.u.):             2.757808823516246

 FOBSH| *** WARNING: Projection to avoid spurious transfer get lambda =    1.0104698429058350      ***
 FOBSH| CASE1: no hop and no trivial crossing
 ENTER integrator.F
 STEP NUMBER                  =           24
 CPU TIME [s]                 =   0.14486376382410526       0.19618675081680217     

 *******************************************************************************
 ENSEMBLE TYPE                =                                              NVE
 STEP NUMBER                  =                                               24
 TIME [fs]                    =                                         2.400000
 CONSERVED QUANTITY [hartree] =                               0.923477675149E+01

                                              INSTANTANEOUS             AVERAGES
 CPU TIME [s]                 =                        0.14                 0.20
 ENERGY DRIFT PER ATOM [K]    =         -0.189066930210E+00  -0.117256748401E+00
 POTENTIAL ENERGY[hartree]    =          0.275780882352E+01   0.584181642293E+01
 KINETIC ENERGY [hartree]     =          0.647696792797E+01   0.339334864091E+01
 TEMPERATURE [K]              =                     804.430              421.449
 *******************************************************************************

 FOBSH| Put former active state           1 in new active state           1
 RANDOM_NUMBER_HOPPING_PROBA  0.72233356424732642     
 FOBSH| ACTIVE STATE =            1

 ENERGY| Total FORCE_EVAL ( MIXED ) energy (a.u.):             2.527633149486799

 FOBSH| *** WARNING: Projection to avoid spurious transfer get lambda =    1.0082292416526670      ***
 FOBSH| CASE1: no hop and no trivial crossing
 ENTER integrator.F
 STEP NUMBER                  =           25
 CPU TIME [s]                 =   0.12630254030227661       0.19339138239622117     

 *******************************************************************************
 ENSEMBLE TYPE                =                                              NVE
 STEP NUMBER                  =                                               25
 TIME [fs]                    =                                         2.500000
 CONSERVED QUANTITY [hartree] =                               0.923494793411E+01

                                              INSTANTANEOUS             AVERAGES
 CPU TIME [s]                 =                        0.13                 0.19
 ENERGY DRIFT PER ATOM [K]    =         -0.157194800286E+00  -0.118854270476E+00
 POTENTIAL ENERGY[hartree]    =          0.252763314949E+01   0.570924909200E+01
 KINETIC ENERGY [hartree]     =          0.670731478462E+01   0.352590728666E+01
 TEMPERATURE [K]              =                     833.038              437.912
 *******************************************************************************

 FOBSH| Put former active state           1 in new active state           1
 RANDOM_NUMBER_HOPPING_PROBA  0.41255905567954382     
 FOBSH| ACTIVE STATE =            1

 ENERGY| Total FORCE_EVAL ( MIXED ) energy (a.u.):             2.326767824714219

 FOBSH| *** WARNING: Projection to avoid spurious transfer get lambda =    1.0050813841741699      ***
 FOBSH| CASE1: no hop and no trivial crossing
 ENTER integrator.F
 STEP NUMBER                  =           26
 CPU TIME [s]                 =   0.13472192734479904       0.19113486489424339     

 *******************************************************************************
 ENSEMBLE TYPE                =                                              NVE
 STEP NUMBER                  =                                               26
 TIME [fs]                    =                                         2.600000
 CONSERVED QUANTITY [hartree] =                               0.923516409659E+01

                                              INSTANTANEOUS             AVERAGES
 CPU TIME [s]                 =                        0.13                 0.19
 ENERGY DRIFT PER ATOM [K]    =         -0.116947966883E+00  -0.118780951107E+00
 POTENTIAL ENERGY[hartree]    =          0.232676782471E+01   0.557915365864E+01
 KINETIC ENERGY [hartree]     =          0.690839627187E+01   0.365600301686E+01
 TEMPERATURE [K]              =                     858.012              454.070
 *******************************************************************************

 FOBSH| Put former active state           1 in new active state           1
 RANDOM_NUMBER_HOPPING_PROBA  0.34090377784054399     
 FOBSH| ACTIVE STATE =            1

 ENERGY| Total FORCE_EVAL ( MIXED ) energy (a.u.):             2.157752777211593

 FOBSH| *** WARNING: Projection to avoid spurious transfer get lambda =    1.0013691886195861      ***
 FOBSH| CASE1: no hop and no trivial crossing
 ENTER integrator.F
 STEP NUMBER                  =           27
 CPU TIME [s]                 =   0.11839178949594498       0.18844067691652863     

 *******************************************************************************
 ENSEMBLE TYPE                =                                              NVE
 STEP NUMBER                  =                                               27
 TIME [fs]                    =                                         2.700000
 CONSERVED QUANTITY [hartree] =                               0.923542727873E+01

                                              INSTANTANEOUS             AVERAGES
 CPU TIME [s]                 =                        0.12                 0.19
 ENERGY DRIFT PER ATOM [K]    =         -0.679466400402E-01  -0.116898198845E+00
 POTENTIAL ENERGY[hartree]    =          0.215775277721E+01   0.545243510747E+01
 KINETIC ENERGY [hartree]     =          0.707767450152E+01   0.378273159036E+01
 TEMPERATURE [K]              =                     879.036              469.810
 *******************************************************************************

 FOBSH| Put former active state           1 in new active state           1
 RANDOM_NUMBER_HOPPING_PROBA  0.27677776794176917     
 FOBSH| ACTIVE STATE =            1

 ENERGY| Total FORCE_EVAL ( MIXED ) energy (a.u.):             2.022684836819062

 FOBSH| *** WARNING: Projection to avoid spurious transfer get lambda =   0.99747564593598670      ***
 FOBSH| CASE1: no hop and no trivial crossing
 ENTER integrator.F
 STEP NUMBER                  =           28
 CPU TIME [s]                 =   0.14599016681313515       0.18692458726997885     

 *******************************************************************************
 ENSEMBLE TYPE                =                                              NVE
 STEP NUMBER                  =                                               28
 TIME [fs]                    =                                         2.800000
 CONSERVED QUANTITY [hartree] =                               0.923573891539E+01

                                              INSTANTANEOUS             AVERAGES
 CPU TIME [s]                 =                        0.15                 0.19
 ENERGY DRIFT PER ATOM [K]    =         -0.992367067087E-02  -0.113077679982E+00
 POTENTIAL ENERGY[hartree]    =          0.202268483682E+01   0.532994402638E+01
 KINETIC ENERGY [hartree]     =          0.721305407857E+01   0.390524310780E+01
 TEMPERATURE [K]              =                     895.850              485.025
 *******************************************************************************

 FOBSH| Put former active state           1 in new active state           1
 RANDOM_NUMBER_HOPPING_PROBA  0.98383587380821402     
 FOBSH| ACTIVE STATE =            1

 ENERGY| Total FORCE_EVAL ( MIXED ) energy (a.u.):             1.923193130173779

 FOBSH| *** WARNING: Projection to avoid spurious transfer get lambda =   0.99381145451527997      ***
 FOBSH| CASE1: no hop and no trivial crossing
 ENTER integrator.F
 STEP NUMBER                  =           29
 CPU TIME [s]                 =   0.16275941953063011       0.18609130562379442     

 *******************************************************************************
 ENSEMBLE TYPE                =                                              NVE
 STEP NUMBER                  =                                               29
 TIME [fs]                    =                                         2.900000
 CONSERVED QUANTITY [hartree] =                               0.923610026108E+01

                                              INSTANTANEOUS             AVERAGES
 CPU TIME [s]                 =                        0.16                 0.19
 ENERGY DRIFT PER ATOM [K]    =          0.573545183456E-01  -0.107200707626E+00
 POTENTIAL ENERGY[hartree]    =          0.192319313017E+01   0.521246985755E+01
 KINETIC ENERGY [hartree]     =          0.731290713091E+01   0.402274876377E+01
 TEMPERATURE [K]              =                     908.252              499.619
 *******************************************************************************

 FOBSH| Put former active state           1 in new active state           1
 RANDOM_NUMBER_HOPPING_PROBA   3.3129242921919225E-002
 FOBSH| ACTIVE STATE =            1

 ENERGY| Total FORCE_EVAL ( MIXED ) energy (a.u.):             1.860419750996004

 FOBSH| *** WARNING: Projection to avoid spurious transfer get lambda =   0.99077871395898520      ***
 FOBSH| CASE1: no hop and no trivial crossing
 ENTER integrator.F
 STEP NUMBER                  =           30
 CPU TIME [s]                 =   0.14027304574847221       0.18456403029461702     

 *******************************************************************************
 ENSEMBLE TYPE                =                                              NVE
 STEP NUMBER                  =                                               30
 TIME [fs]                    =                                         3.000000
 CONSERVED QUANTITY [hartree] =                               0.923651198424E+01

                                              INSTANTANEOUS             AVERAGES
 CPU TIME [s]                 =                        0.14                 0.18
 ENERGY DRIFT PER ATOM [K]    =          0.134012380704E+00  -0.991602713482E-01
 POTENTIAL ENERGY[hartree]    =          0.186041975100E+01   0.510073485399E+01
 KINETIC ENERGY [hartree]     =          0.737609223324E+01   0.413452687942E+01
 TEMPERATURE [K]              =                     916.099              513.502
 *******************************************************************************

 FOBSH| Put former active state           1 in new active state           1
 RANDOM_NUMBER_HOPPING_PROBA  0.70278426380342041     
 FOBSH| ACTIVE STATE =            1

 ENERGY| Total FORCE_EVAL ( MIXED ) energy (a.u.):             1.835007590797355

 FOBSH| *** WARNING: Projection to avoid spurious transfer get lambda =   0.98871272011705902      ***
 FOBSH| CASE1: no hop and no trivial crossing
 ENTER integrator.F
 STEP NUMBER                  =           31
 CPU TIME [s]                 =   0.14656403101980686       0.18333822386639734     

 *******************************************************************************
 ENSEMBLE TYPE                =                                              NVE
 STEP NUMBER                  =                                               31
 TIME [fs]                    =                                         3.100000
 CONSERVED QUANTITY [hartree] =                               0.923697448918E+01

                                              INSTANTANEOUS             AVERAGES
 CPU TIME [s]                 =                        0.15                 0.18
 ENERGY DRIFT PER ATOM [K]    =          0.220125195390E+00  -0.888607401631E-01
 POTENTIAL ENERGY[hartree]    =          0.183500759080E+01   0.499538881325E+01
 KINETIC ENERGY [hartree]     =          0.740196689838E+01   0.423992817035E+01
 TEMPERATURE [K]              =                     919.313              526.593
 *******************************************************************************

 FOBSH| Put former active state           1 in new active state           1
 RANDOM_NUMBER_HOPPING_PROBA   5.8359604361187138E-002
 FOBSH| ACTIVE STATE =            1

 ENERGY| Total FORCE_EVAL ( MIXED ) energy (a.u.):             1.847094379917554

 FOBSH| *** WARNING: Projection to avoid spurious transfer get lambda =   0.98782000463076525      ***
 FOBSH| CASE1: no hop and no trivial crossing
 ENTER integrator.F
 STEP NUMBER                  =           32
 CPU TIME [s]                 =   0.15121860988438129       0.18233448592945933     

 *******************************************************************************
 ENSEMBLE TYPE                =                                              NVE
 STEP NUMBER                  =                                               32
 TIME [fs]                    =                                         3.200000
 CONSERVED QUANTITY [hartree] =                               0.923748766754E+01

                                              INSTANTANEOUS             AVERAGES
 CPU TIME [s]                 =                        0.15                 0.18
 ENERGY DRIFT PER ATOM [K]    =          0.315672788164E+00  -0.762190674029E-01
 POTENTIAL ENERGY[hartree]    =          0.184709437992E+01   0.489700461220E+01
 KINETIC ENERGY [hartree]     =          0.739039328762E+01   0.433838020527E+01
 TEMPERATURE [K]              =                     917.876              538.820
 *******************************************************************************

 FOBSH| Put former active state           1 in new active state           1
 RANDOM_NUMBER_HOPPING_PROBA  0.46498143945730747     
 FOBSH| ACTIVE STATE =            1

 ENERGY| Total FORCE_EVAL ( MIXED ) energy (a.u.):             1.896313877933048

 FOBSH| *** WARNING: Projection to avoid spurious transfer get lambda =   0.98813839996075681      ***
 FOBSH| CASE1: no hop and no trivial crossing
 ENTER integrator.F
 STEP NUMBER                  =           33
 CPU TIME [s]                 =   0.16455185227096081       0.18179561824283816     

 *******************************************************************************
 ENSEMBLE TYPE                =                                              NVE
 STEP NUMBER                  =                                               33
 TIME [fs]                    =                                         3.300000
 CONSERVED QUANTITY [hartree] =                               0.923805105014E+01

                                              INSTANTANEOUS             AVERAGES
 CPU TIME [s]                 =                        0.16                 0.18
 ENERGY DRIFT PER ATOM [K]    =          0.420567800427E+00  -0.611649198929E-01
 POTENTIAL ENERGY[hartree]    =          0.189631387793E+01   0.480607458995E+01
 KINETIC ENERGY [hartree]     =          0.734173717220E+01   0.442939102245E+01
 TEMPERATURE [K]              =                     911.833              550.124
 *******************************************************************************

 FOBSH| Put former active state           1 in new active state           1
 RANDOM_NUMBER_HOPPING_PROBA  0.41692479344093175     
 FOBSH| ACTIVE STATE =            1

 ENERGY| Total FORCE_EVAL ( MIXED ) energy (a.u.):             1.981803223387923

 FOBSH| *** WARNING: Projection to avoid spurious transfer get lambda =   0.98953700648497267      ***
 FOBSH| CASE1: no hop and no trivial crossing
 ENTER integrator.F
 STEP NUMBER                  =           34
 CPU TIME [s]                 =   0.15290272049605846       0.18094582713263876     

 *******************************************************************************
 ENSEMBLE TYPE                =                                              NVE
 STEP NUMBER                  =                                               34
 TIME [fs]                    =                                         3.400000
 CONSERVED QUANTITY [hartree] =                               0.923866367282E+01

                                              INSTANTANEOUS             AVERAGES
 CPU TIME [s]                 =                        0.15                 0.18
 ENERGY DRIFT PER ATOM [K]    =          0.534630720310E+00  -0.436415187104E-01
 POTENTIAL ENERGY[hartree]    =          0.198180322339E+01   0.472300778505E+01
 KINETIC ENERGY [hartree]     =          0.725686044943E+01   0.451255188795E+01
 TEMPERATURE [K]              =                     901.291              560.452
 *******************************************************************************

 FOBSH| Put former active state           1 in new active state           1
 RANDOM_NUMBER_HOPPING_PROBA  0.95542779162735236     
 FOBSH| ACTIVE STATE =            1

 ENERGY| Total FORCE_EVAL ( MIXED ) energy (a.u.):             2.102217399940910

 FOBSH| *** WARNING: Projection to avoid spurious transfer get lambda =   0.99175512634068042      ***
 FOBSH| CASE1: no hop and no trivial crossing
 ENTER integrator.F
 STEP NUMBER                  =           35
 CPU TIME [s]                 =   0.13625453785061836       0.17966893315315247     

 *******************************************************************************
 ENSEMBLE TYPE                =                                              NVE
 STEP NUMBER                  =                                               35
 TIME [fs]                    =                                         3.500000
 CONSERVED QUANTITY [hartree] =                               0.923932424624E+01

                                              INSTANTANEOUS             AVERAGES
 CPU TIME [s]                 =                        0.14                 0.18
 ENERGY DRIFT PER ATOM [K]    =          0.657621486476E+00  -0.236054328480E-01
 POTENTIAL ENERGY[hartree]    =          0.210221739994E+01   0.464812805977E+01
 KINETIC ENERGY [hartree]     =          0.713710684630E+01   0.458753917247E+01
 TEMPERATURE [K]              =                     886.418              569.765
 *******************************************************************************

 FOBSH| Put former active state           1 in new active state           1
 RANDOM_NUMBER_HOPPING_PROBA  0.69612169074670227     
 FOBSH| ACTIVE STATE =            1

 ENERGY| Total FORCE_EVAL ( MIXED ) energy (a.u.):             2.255749602175074

 FOBSH| *** WARNING: Projection to avoid spurious transfer get lambda =   0.99446289933984511      ***
 FOBSH| CASE1: no hop and no trivial crossing
 ENTER integrator.F
 STEP NUMBER                  =           36
 CPU TIME [s]                 =   0.15699163638055325       0.17903900824280247     

 *******************************************************************************
 ENSEMBLE TYPE                =                                              NVE
 STEP NUMBER                  =                                               36
 TIME [fs]                    =                                         3.600000
 CONSERVED QUANTITY [hartree] =                               0.924003101581E+01

                                              INSTANTANEOUS             AVERAGES
 CPU TIME [s]                 =                        0.16                 0.18
 ENERGY DRIFT PER ATOM [K]    =          0.789213414946E+00  -0.102713152035E-02
 POTENTIAL ENERGY[hartree]    =          0.225574960218E+01   0.458167310261E+01
 KINETIC ENERGY [hartree]     =          0.698428141363E+01   0.465411534584E+01
 TEMPERATURE [K]              =                     867.437              578.034
 *******************************************************************************

 FOBSH| Put former active state           1 in new active state           1
 RANDOM_NUMBER_HOPPING_PROBA  0.81718961707675841     
 FOBSH| ACTIVE STATE =            1

 ENERGY| Total FORCE_EVAL ( MIXED ) energy (a.u.):             2.440157745899065

 FOBSH| *** WARNING: Projection to avoid spurious transfer get lambda =   0.99732209430368546      ***
 FOBSH| CASE1: no hop and no trivial crossing
 ENTER integrator.F
 STEP NUMBER                  =           37
 CPU TIME [s]                 =   0.11358740366995335       0.17727004595704979     

 *******************************************************************************
 ENSEMBLE TYPE                =                                              NVE
 STEP NUMBER                  =                                               37
 TIME [fs]                    =                                         3.700000
 CONSERVED QUANTITY [hartree] =                               0.924078195798E+01

                                              INSTANTANEOUS             AVERAGES
 CPU TIME [s]                 =                        0.11                 0.18
 ENERGY DRIFT PER ATOM [K]    =          0.929029748383E+00   0.241095409095E-01
 POTENTIAL ENERGY[hartree]    =          0.244015774590E+01   0.452379430919E+01
 KINETIC ENERGY [hartree]     =          0.680062421208E+01   0.471212909898E+01
 TEMPERATURE [K]              =                     844.627              585.239
 *******************************************************************************

 FOBSH| Put former active state           1 in new active state           1
 RANDOM_NUMBER_HOPPING_PROBA  0.11922992900941179     
 FOBSH| ACTIVE STATE =            1

 ENERGY| Total FORCE_EVAL ( MIXED ) energy (a.u.):             2.652796281803330

 FOBSH| CASE1: no hop and no trivial crossing
 ENTER integrator.F
 STEP NUMBER                  =           38
 CPU TIME [s]                 =   0.13496803119778633       0.17615683504233232     

 *******************************************************************************
 ENSEMBLE TYPE                =                                              NVE
 STEP NUMBER                  =                                               38
 TIME [fs]                    =                                         3.800000
 CONSERVED QUANTITY [hartree] =                               0.924157465511E+01

                                              INSTANTANEOUS             AVERAGES
 CPU TIME [s]                 =                        0.13                 0.18
 ENERGY DRIFT PER ATOM [K]    =          0.107662034822E+01   0.518071937335E-01
 POTENTIAL ENERGY[hartree]    =          0.265279628180E+01   0.447455751899E+01
 KINETIC ENERGY [hartree]     =          0.658877837331E+01   0.476151460620E+01
 TEMPERATURE [K]              =                     818.316              591.373
 *******************************************************************************

 FOBSH| Put former active state           1 in new active state           1
 RANDOM_NUMBER_HOPPING_PROBA  0.92253367646760420     
 FOBSH| ACTIVE STATE =            1

 ENERGY| Total FORCE_EVAL ( MIXED ) energy (a.u.):             2.890653547321027

 FOBSH| *** WARNING: Projection to avoid spurious transfer get lambda =    1.0023563249515273      ***
 FOBSH| CASE1: no hop and no trivial crossing
 ENTER integrator.F
 STEP NUMBER                  =           39
 CPU TIME [s]                 =   0.12834626808762550       0.17493092306913471     

 *******************************************************************************
 ENSEMBLE TYPE                =                                              NVE
 STEP NUMBER                  =                                               39
 TIME [fs]                    =                                         3.900000
 CONSERVED QUANTITY [hartree] =                               0.924240649491E+01

                                              INSTANTANEOUS             AVERAGES
 CPU TIME [s]                 =                        0.13                 0.17
 ENERGY DRIFT PER ATOM [K]    =          0.123149883789E+01   0.820556974297E-01
 POTENTIAL ENERGY[hartree]    =          0.289065354732E+01   0.443394459664E+01
 KINETIC ENERGY [hartree]     =          0.635175294759E+01   0.480228994829E+01
 TEMPERATURE [K]              =                     788.878              596.437
 *******************************************************************************

 FOBSH| Put former active state           1 in new active state           1
 RANDOM_NUMBER_HOPPING_PROBA  0.76883670220105782     
 FOBSH| ACTIVE STATE =            1

 ENERGY| Total FORCE_EVAL ( MIXED ) energy (a.u.):             3.150393430103132

 FOBSH| *** WARNING: Projection to avoid spurious transfer get lambda =    1.0041317389194893      ***
 FOBSH| CASE1: no hop and no trivial crossing
 ENTER integrator.F
 STEP NUMBER                  =           40
 CPU TIME [s]                 =   0.13744122907519341       0.17399368071928620     

 *******************************************************************************
 ENSEMBLE TYPE                =                                              NVE
 STEP NUMBER                  =                                               40
 TIME [fs]                    =                                         4.000000
 CONSERVED QUANTITY [hartree] =                               0.924327433743E+01

                                              INSTANTANEOUS             AVERAGES
 CPU TIME [s]                 =                        0.14                 0.17
 ENERGY DRIFT PER ATOM [K]    =          0.139308059822E+01   0.114831319949E+00
 POTENTIAL ENERGY[hartree]    =          0.315039343010E+01   0.440185581748E+01
 KINETIC ENERGY [hartree]     =          0.609288090732E+01   0.483455472226E+01
 TEMPERATURE [K]              =                     756.727              600.444
 *******************************************************************************

 FOBSH| Put former active state           1 in new active state           1
 RANDOM_NUMBER_HOPPING_PROBA   4.8222606310225589E-002
 FOBSH| ACTIVE STATE =            1

 ENERGY| Total FORCE_EVAL ( MIXED ) energy (a.u.):             3.428401943168112

 FOBSH| *** WARNING: Projection to avoid spurious transfer get lambda =    1.0052667258703596      ***
 FOBSH| CASE1: no hop and no trivial crossing
 ENTER integrator.F
 STEP NUMBER                  =           41
 CPU TIME [s]                 =   0.14941130392253399       0.17339411055351175     

 *******************************************************************************
 ENSEMBLE TYPE                =                                              NVE
 STEP NUMBER                  =                                               41
 TIME [fs]                    =                                         4.100000
 CONSERVED QUANTITY [hartree] =                               0.924417503957E+01

                                              INSTANTANEOUS             AVERAGES
 CPU TIME [s]                 =                        0.15                 0.17
 ENERGY DRIFT PER ATOM [K]    =          0.156078042189E+01   0.150098371216E+00
 POTENTIAL ENERGY[hartree]    =          0.342840194317E+01   0.437811304006E+01
 KINETIC ENERGY [hartree]     =          0.581577309640E+01   0.485848687773E+01
 TEMPERATURE [K]              =                     722.310              603.417
 *******************************************************************************

 FOBSH| Put former active state           1 in new active state           1
 RANDOM_NUMBER_HOPPING_PROBA  0.21691893230172293     
 FOBSH| ACTIVE STATE =            1

 ENERGY| Total FORCE_EVAL ( MIXED ) energy (a.u.):             3.720836287834869

 FOBSH| *** WARNING: Projection to avoid spurious transfer get lambda =    1.0057339035243194      ***
 FOBSH| CASE1: no hop and no trivial crossing
 ENTER integrator.F
 STEP NUMBER                  =           42
 CPU TIME [s]                 =   0.14813547581434250       0.17279271448829345     

 *******************************************************************************
 ENSEMBLE TYPE                =                                              NVE
 STEP NUMBER                  =                                               42
 TIME [fs]                    =                                         4.200000
 CONSERVED QUANTITY [hartree] =                               0.924510520633E+01

                                              INSTANTANEOUS             AVERAGES
 CPU TIME [s]                 =                        0.15                 0.17
 ENERGY DRIFT PER ATOM [K]    =          0.173396620048E+01   0.187809510008E+00
 POTENTIAL ENERGY[hartree]    =          0.372083628783E+01   0.436246359357E+01
 KINETIC ENERGY [hartree]     =          0.552426891849E+01   0.487433883108E+01
 TEMPERATURE [K]              =                     686.106              605.385
 *******************************************************************************

 FOBSH| Put former active state           1 in new active state           1
 RANDOM_NUMBER_HOPPING_PROBA  0.31617831223762805     
 FOBSH| ACTIVE STATE =            1

 ENERGY| Total FORCE_EVAL ( MIXED ) energy (a.u.):             4.023677228720884

 FOBSH| *** WARNING: Projection to avoid spurious transfer get lambda =    1.0055610398121215      ***
 FOBSH| CASE1: no hop and no trivial crossing
 ENTER integrator.F
 STEP NUMBER                  =           43
 CPU TIME [s]                 =   0.10900213941931725       0.17130921274250330     

 *******************************************************************************
 ENSEMBLE TYPE                =                                              NVE
 STEP NUMBER                  =                                               43
 TIME [fs]                    =                                         4.300000
 CONSERVED QUANTITY [hartree] =                               0.924606128086E+01

                                              INSTANTANEOUS             AVERAGES
 CPU TIME [s]                 =                        0.11                 0.17
 ENERGY DRIFT PER ATOM [K]    =          0.191197569317E+01   0.227906397989E+00
 POTENTIAL ENERGY[hartree]    =          0.402367722872E+01   0.435458484090E+01
 KINETIC ENERGY [hartree]     =          0.522238405214E+01   0.488243290599E+01
 TEMPERATURE [K]              =                     648.612              606.391
 *******************************************************************************

 FOBSH| Put former active state           1 in new active state           1
 RANDOM_NUMBER_HOPPING_PROBA  0.25311632609185669     
 FOBSH| ACTIVE STATE =            1

 ENERGY| Total FORCE_EVAL ( MIXED ) energy (a.u.):             4.332783608444257

 FOBSH| *** WARNING: Projection to avoid spurious transfer get lambda =    1.0048224965559975      ***
 FOBSH| CASE1: no hop and no trivial crossing
 ENTER integrator.F
 STEP NUMBER                  =           44
 CPU TIME [s]                 =   0.15230802632868290       0.17087736759673466     

 *******************************************************************************
 ENSEMBLE TYPE                =                                              NVE
 STEP NUMBER                  =                                               44
 TIME [fs]                    =                                         4.400000
 CONSERVED QUANTITY [hartree] =                               0.924703962355E+01

                                              INSTANTANEOUS             AVERAGES
 CPU TIME [s]                 =                        0.15                 0.17
 ENERGY DRIFT PER ATOM [K]    =          0.209413124626E+01   0.270320599086E+00
 POTENTIAL ENERGY[hartree]    =          0.433278360844E+01   0.435408935835E+01
 KINETIC ENERGY [hartree]     =          0.491425601510E+01   0.488315615847E+01
 TEMPERATURE [K]              =                     610.343              606.481
 *******************************************************************************

 FOBSH| Put former active state           1 in new active state           1
 RANDOM_NUMBER_HOPPING_PROBA  0.76725138341735311     
 FOBSH| ACTIVE STATE =            1

 ENERGY| Total FORCE_EVAL ( MIXED ) energy (a.u.):             4.643948089916119

 FOBSH| *** WARNING: Projection to avoid spurious transfer get lambda =    1.0036314223016027      ***
 FOBSH| CASE1: no hop and no trivial crossing
 ENTER integrator.F
 STEP NUMBER                  =           45
 CPU TIME [s]                 =   0.14818150922656059       0.17037301518850856     

 *******************************************************************************
 ENSEMBLE TYPE                =                                              NVE
 STEP NUMBER                  =                                               45
 TIME [fs]                    =                                         4.500000
 CONSERVED QUANTITY [hartree] =                               0.924803652981E+01

                                              INSTANTANEOUS             AVERAGES
 CPU TIME [s]                 =                        0.15                 0.17
 ENERGY DRIFT PER ATOM [K]    =          0.227974311180E+01   0.314974432702E+00
 POTENTIAL ENERGY[hartree]    =          0.464394808992E+01   0.436053066349E+01
 KINETIC ENERGY [hartree]     =          0.460408843989E+01   0.487695465361E+01
 TEMPERATURE [K]              =                     571.821              605.710
 *******************************************************************************

 FOBSH| Put former active state           1 in new active state           1
 RANDOM_NUMBER_HOPPING_PROBA  0.42180098656905007     
 FOBSH| ACTIVE STATE =            1

 ENERGY| Total FORCE_EVAL ( MIXED ) energy (a.u.):             4.952953680975220

 FOBSH| *** WARNING: Projection to avoid spurious transfer get lambda =    1.0021318651068538      ***
 FOBSH| CASE1: no hop and no trivial crossing
 ENTER integrator.F
 STEP NUMBER                  =           46
 CPU TIME [s]                 =   0.11908311583101749       0.16925801737638918     

 *******************************************************************************
 ENSEMBLE TYPE                =                                              NVE
 STEP NUMBER                  =                                               46
 TIME [fs]                    =                                         4.600000
 CONSERVED QUANTITY [hartree] =                               0.924904828785E+01

                                              INSTANTANEOUS             AVERAGES
 CPU TIME [s]                 =                        0.12                 0.17
 ENERGY DRIFT PER ATOM [K]    =          0.246812019888E+01   0.361781949358E+00
 POTENTIAL ENERGY[hartree]    =          0.495295368098E+01   0.437340942474E+01
 KINETIC ENERGY [hartree]     =          0.429609460688E+01   0.486432726129E+01
 TEMPERATURE [K]              =                     533.568              604.142
 *******************************************************************************

 FOBSH| Put former active state           1 in new active state           1
 RANDOM_NUMBER_HOPPING_PROBA  0.14315497683739178     
 FOBSH| ACTIVE STATE =            1

 ENERGY| Total FORCE_EVAL ( MIXED ) energy (a.u.):             5.255630043227958

 FOBSH| CASE1: no hop and no trivial crossing
 ENTER integrator.F
 STEP NUMBER                  =           47
 CPU TIME [s]                 =   0.16304947435855865       0.16912592071643534     

 *******************************************************************************
 ENSEMBLE TYPE                =                                              NVE
 STEP NUMBER                  =                                               47
 TIME [fs]                    =                                         4.700000
 CONSERVED QUANTITY [hartree] =                               0.925007124045E+01

                                              INSTANTANEOUS             AVERAGES
 CPU TIME [s]                 =                        0.16                 0.17
 ENERGY DRIFT PER ATOM [K]    =          0.265858157531E+01   0.410650026506E+00
 POTENTIAL ENERGY[hartree]    =          0.525563004323E+01   0.439218007620E+01
 KINETIC ENERGY [hartree]     =          0.399444119722E+01   0.484581904716E+01
 TEMPERATURE [K]              =                     496.104              601.843
 *******************************************************************************

 FOBSH| Put former active state           1 in new active state           1
 RANDOM_NUMBER_HOPPING_PROBA  0.48689183669013492     
 FOBSH| ACTIVE STATE =            1

 ENERGY| Total FORCE_EVAL ( MIXED ) energy (a.u.):             5.547908960092915

 FOBSH| *** WARNING: Projection to avoid spurious transfer get lambda =   0.99887714208788370      ***
 FOBSH| CASE1: no hop and no trivial crossing
 ENTER integrator.F
[...]
 *******************************************************************************

 FOBSH| Put former active state           1 in new active state           1
 RANDOM_NUMBER_HOPPING_PROBA   4.4430210776972553E-002
 FOBSH| ACTIVE STATE =            1

 ENERGY| Total FORCE_EVAL ( MIXED ) energy (a.u.):             2.911174546311742

 FOBSH| CASE1: no hop and no trivial crossing
 ENTER integrator.F
 STEP NUMBER                  =          191
 CPU TIME [s]                 =    5.6508880108594894E-002  0.11948677275271319     

 *******************************************************************************
 ENSEMBLE TYPE                =                                              NVE
 STEP NUMBER                  =                                              191
 TIME [fs]                    =                                        19.100000
 CONSERVED QUANTITY [hartree] =                               0.930800017939E+01

                                              INSTANTANEOUS             AVERAGES
 CPU TIME [s]                 =                        0.06                 0.12
 ENERGY DRIFT PER ATOM [K]    =          0.134442480251E+02   0.876996641373E+01
 POTENTIAL ENERGY[hartree]    =          0.291117454631E+01   0.468127974498E+01
 KINETIC ENERGY [hartree]     =          0.639682563308E+01   0.460161557726E+01
 TEMPERATURE [K]              =                     794.476              571.514
 *******************************************************************************

 FOBSH| Put former active state           1 in new active state           1
 RANDOM_NUMBER_HOPPING_PROBA  0.77346792092577743     
 FOBSH| ACTIVE STATE =            1

 ENERGY| Total FORCE_EVAL ( MIXED ) energy (a.u.):             2.832646078126817

 FOBSH| CASE1: no hop and no trivial crossing
 ENTER integrator.F
 STEP NUMBER                  =          192
 CPU TIME [s]                 =    5.7786930352449417E-002  0.11916541940687848     

 *******************************************************************************
 ENSEMBLE TYPE                =                                              NVE
 STEP NUMBER                  =                                              192
 TIME [fs]                    =                                        19.200000
 CONSERVED QUANTITY [hartree] =                               0.930794948414E+01

                                              INSTANTANEOUS             AVERAGES
 CPU TIME [s]                 =                        0.06                 0.12
 ENERGY DRIFT PER ATOM [K]    =          0.134348091837E+02   0.879426246982E+01
 POTENTIAL ENERGY[hartree]    =          0.283264607813E+01   0.467165144463E+01
 KINETIC ENERGY [hartree]     =          0.647530340601E+01   0.461137436803E+01
 TEMPERATURE [K]              =                     804.223              572.726
 *******************************************************************************

 FOBSH| Put former active state           1 in new active state           1
 RANDOM_NUMBER_HOPPING_PROBA  0.13679440213675512     
 FOBSH| ACTIVE STATE =            1

 ENERGY| Total FORCE_EVAL ( MIXED ) energy (a.u.):             2.776284738597441

 FOBSH| CASE1: no hop and no trivial crossing
 ENTER integrator.F
 STEP NUMBER                  =          193
 CPU TIME [s]                 =   0.10056277178227901       0.11906903263162150     

 *******************************************************************************
 ENSEMBLE TYPE                =                                              NVE
 STEP NUMBER                  =                                              193
 TIME [fs]                    =                                        19.300000
 CONSERVED QUANTITY [hartree] =                               0.930791764493E+01

                                              INSTANTANEOUS             AVERAGES
 CPU TIME [s]                 =                        0.10                 0.12
 ENERGY DRIFT PER ATOM [K]    =          0.134288811088E+02   0.881827603790E+01
 POTENTIAL ENERGY[hartree]    =          0.277628473860E+01   0.466183089175E+01
 KINETIC ENERGY [hartree]     =          0.653163290633E+01   0.462132389414E+01
 TEMPERATURE [K]              =                     811.219              573.961
 *******************************************************************************

 FOBSH| Put former active state           1 in new active state           1
 RANDOM_NUMBER_HOPPING_PROBA  0.89663858071454450     
 FOBSH| ACTIVE STATE =            1

 ENERGY| Total FORCE_EVAL ( MIXED ) energy (a.u.):             2.742685849226147

 FOBSH| CASE1: no hop and no trivial crossing
 ENTER integrator.F
 STEP NUMBER                  =          194
 CPU TIME [s]                 =    6.8084809929132462E-002  0.11880622735995917     

 *******************************************************************************
 ENSEMBLE TYPE                =                                              NVE
 STEP NUMBER                  =                                              194
 TIME [fs]                    =                                        19.400000
 CONSERVED QUANTITY [hartree] =                               0.930790483007E+01

                                              INSTANTANEOUS             AVERAGES
 CPU TIME [s]                 =                        0.07                 0.12
 ENERGY DRIFT PER ATOM [K]    =          0.134264951372E+02   0.884202974460E+01
 POTENTIAL ENERGY[hartree]    =          0.274268584923E+01   0.465193839153E+01
 KINETIC ENERGY [hartree]     =          0.656521898084E+01   0.463134397190E+01
 TEMPERATURE [K]              =                     815.390              575.206
 *******************************************************************************

 FOBSH| Put former active state           1 in new active state           1
 RANDOM_NUMBER_HOPPING_PROBA  0.66724698194008614     
 FOBSH| ACTIVE STATE =            1

 ENERGY| Total FORCE_EVAL ( MIXED ) energy (a.u.):             2.732151620360256

 FOBSH| CASE1: no hop and no trivial crossing
 ENTER integrator.F
 STEP NUMBER                  =          195
 CPU TIME [s]                 =    5.5754091590642929E-002  0.11848288307396269     

 *******************************************************************************
 ENSEMBLE TYPE                =                                              NVE
 STEP NUMBER                  =                                              195
 TIME [fs]                    =                                        19.500000
 CONSERVED QUANTITY [hartree] =                               0.930791105499E+01

                                              INSTANTANEOUS             AVERAGES
 CPU TIME [s]                 =                        0.06                 0.12
 ENERGY DRIFT PER ATOM [K]    =          0.134276541419E+02   0.886554576715E+01
 POTENTIAL ENERGY[hartree]    =          0.273215162036E+01   0.464209333116E+01
 KINETIC ENERGY [hartree]     =          0.657575943463E+01   0.464131533325E+01
 TEMPERATURE [K]              =                     816.699              576.444
 *******************************************************************************

 FOBSH| Put former active state           1 in new active state           1
 RANDOM_NUMBER_HOPPING_PROBA  0.30737861989409504     
 FOBSH| ACTIVE STATE =            1

 ENERGY| Total FORCE_EVAL ( MIXED ) energy (a.u.):             2.744690418777123

 FOBSH| CASE1: no hop and no trivial crossing
 ENTER integrator.F
 STEP NUMBER                  =          196
 CPU TIME [s]                 =    7.7314523980021477E-002  0.11827284042552420     

 *******************************************************************************
 ENSEMBLE TYPE                =                                              NVE
 STEP NUMBER                  =                                              196
 TIME [fs]                    =                                        19.600000
 CONSERVED QUANTITY [hartree] =                               0.930793606279E+01

                                              INSTANTANEOUS             AVERAGES
 CPU TIME [s]                 =                        0.08                 0.12
 ENERGY DRIFT PER ATOM [K]    =          0.134323102908E+02   0.888884558615E+01
 POTENTIAL ENERGY[hartree]    =          0.274469041878E+01   0.463241270406E+01
 KINETIC ENERGY [hartree]     =          0.656324564401E+01   0.465112110014E+01
 TEMPERATURE [K]              =                     815.145              577.662
 *******************************************************************************

 FOBSH| Put former active state           1 in new active state           1
 RANDOM_NUMBER_HOPPING_PROBA  0.51909640570451798     
 FOBSH| ACTIVE STATE =            1

 ENERGY| Total FORCE_EVAL ( MIXED ) energy (a.u.):             2.780019788971362

 FOBSH| CASE1: no hop and no trivial crossing
 ENTER integrator.F
 STEP NUMBER                  =          197
 CPU TIME [s]                 =    6.5104644745588303E-002  0.11800295110735193     

 *******************************************************************************
 ENSEMBLE TYPE                =                                              NVE
 STEP NUMBER                  =                                              197
 TIME [fs]                    =                                        19.700000
 CONSERVED QUANTITY [hartree] =                               0.930797940461E+01

                                              INSTANTANEOUS             AVERAGES
 CPU TIME [s]                 =                        0.07                 0.12
 ENERGY DRIFT PER ATOM [K]    =          0.134403800123E+02   0.891194982181E+01
 POTENTIAL ENERGY[hartree]    =          0.278001978897E+01   0.462300969434E+01
 KINETIC ENERGY [hartree]     =          0.652795961564E+01   0.466064819921E+01
 TEMPERATURE [K]              =                     810.763              578.845
 *******************************************************************************

 FOBSH| Put former active state           1 in new active state           1
 RANDOM_NUMBER_HOPPING_PROBA  0.55266807739505552     
 FOBSH| ACTIVE STATE =            1

 ENERGY| Total FORCE_EVAL ( MIXED ) energy (a.u.):             2.837572878430859

 FOBSH| CASE1: no hop and no trivial crossing
 ENTER integrator.F
 STEP NUMBER                  =          198
 CPU TIME [s]                 =    5.4204011335968971E-002  0.11768073423981970     

 *******************************************************************************
 ENSEMBLE TYPE                =                                              NVE
 STEP NUMBER                  =                                              198
 TIME [fs]                    =                                        19.800000
 CONSERVED QUANTITY [hartree] =                               0.930804044682E+01

                                              INSTANTANEOUS             AVERAGES
 CPU TIME [s]                 =                        0.05                 0.12
 ENERGY DRIFT PER ATOM [K]    =          0.134517453322E+02   0.893487808197E+01
 POTENTIAL ENERGY[hartree]    =          0.283757287843E+01   0.461399233668E+01
 KINETIC ENERGY [hartree]     =          0.647046756839E+01   0.466978870107E+01
 TEMPERATURE [K]              =                     803.622              579.981
 *******************************************************************************

 FOBSH| Put former active state           1 in new active state           1
 RANDOM_NUMBER_HOPPING_PROBA  0.46756535588148845     
 FOBSH| ACTIVE STATE =            1

 ENERGY| Total FORCE_EVAL ( MIXED ) energy (a.u.):             2.916508242030163

 FOBSH| CASE1: no hop and no trivial crossing
 ENTER integrator.F
 STEP NUMBER                  =          199
 CPU TIME [s]                 =    5.1968475803732872E-002  0.11735052188586952     

 *******************************************************************************
 ENSEMBLE TYPE                =                                              NVE
 STEP NUMBER                  =                                              199
 TIME [fs]                    =                                        19.900000
 CONSERVED QUANTITY [hartree] =                               0.930811832453E+01

                                              INSTANTANEOUS             AVERAGES
 CPU TIME [s]                 =                        0.05                 0.12
 ENERGY DRIFT PER ATOM [K]    =          0.134662452178E+02   0.895764877109E+01
 POTENTIAL ENERGY[hartree]    =          0.291650824203E+01   0.460546226585E+01
 KINETIC ENERGY [hartree]     =          0.639161008250E+01   0.467844106982E+01
 TEMPERATURE [K]              =                     793.828              581.055
 *******************************************************************************

 FOBSH| Put former active state           1 in new active state           1
 RANDOM_NUMBER_HOPPING_PROBA  0.47783121824937258     
 FOBSH| ACTIVE STATE =            1

 ENERGY| Total FORCE_EVAL ( MIXED ) energy (a.u.):             3.015722982769388

 FOBSH| CASE1: no hop and no trivial crossing
 ENTER integrator.F
 STEP NUMBER                  =          200
 CPU TIME [s]                 =    6.3174925744533539E-002  0.11707964390516283     

 *******************************************************************************
 ENSEMBLE TYPE                =                                              NVE
 STEP NUMBER                  =                                              200
 TIME [fs]                    =                                        20.000000
 CONSERVED QUANTITY [hartree] =                               0.930821198248E+01

                                              INSTANTANEOUS             AVERAGES
 CPU TIME [s]                 =                        0.06                 0.12
 ENERGY DRIFT PER ATOM [K]    =          0.134836831935E+02   0.898027894320E+01
 POTENTIAL ENERGY[hartree]    =          0.301572298277E+01   0.459751356944E+01
 KINETIC ENERGY [hartree]     =          0.629248899971E+01   0.468651130947E+01
 TEMPERATURE [K]              =                     781.518              582.058
 *******************************************************************************


 -------------------------------------------------------------------------------
 -                                                                             -
 -                                DBCSR STATISTICS                             -
 -                                                                             -
 -------------------------------------------------------------------------------
 COUNTER                                    TOTAL       BLAS       SMM       ACC
 flops total                                    0       0.0%      0.0%      0.0%
 flops max/rank                                 0       0.0%      0.0%      0.0%
 matmuls inhomo. stacks                         0       0.0%      0.0%      0.0%
 matmuls total                                  0       0.0%      0.0%      0.0%
 number of processed stacks                     0       0.0%      0.0%      0.0%
 average stack size                                     0.0       0.0       0.0
 marketing flops                     0.000000E+00
 -------------------------------------------------------------------------------

 MEMORY| Estimated peak process memory [MiB]                                 106

 -------------------------------------------------------------------------------
 -                                                                             -
 -                           R E F E R E N C E S                               -
 -                                                                             -
 -------------------------------------------------------------------------------
 
 CP2K version 4.0 (Development Version), the CP2K developers group (2015).
 CP2K is freely available from https://www.cp2k.org/ .

 Borstnik, U; VandeVondele, J; Weber, V; Hutter, J. 
 PARALLEL COMPUTING, 40 (5-6), 47-58 (2014). 
 Sparse matrix multiplication: The distributed block-compressed sparse
 row library.
 http://dx.doi.org/10.1016/j.parco.2014.03.012


 Hutter, J; Iannuzzi, M; Schiffmann, F; VandeVondele, J. 
 WILEY INTERDISCIPLINARY REVIEWS-COMPUTATIONAL MOLECULAR SCIENCE, 4 (1), 15-25 (2014). 
 CP2K: atomistic simulations of condensed matter systems.
 http://dx.doi.org/10.1002/wcms.1159


 Frigo, M; Johnson, SG. 
 PROCEEDINGS OF THE IEEE, 93 (2), 216-231 (2005). 
 The design and implementation of FFTW3.
 http://dx.doi.org/10.1109/JPROC.2004.840301


 -------------------------------------------------------------------------------
 -                                                                             -
 -                                T I M I N G                                  -
 -                                                                             -
 -------------------------------------------------------------------------------
 SUBROUTINE                       CALLS  ASD         SELF TIME        TOTAL TIME
                                MAXIMUM       AVERAGE  MAXIMUM  AVERAGE  MAXIMUM
 CP2K                                 1  1.0    0.044    0.044   31.077   31.077
 qs_mol_dyn_low                       1  2.0    0.325    0.325   23.613   23.613
 velocity_verlet                    200  3.0    2.314    2.314   18.204   18.204
 fist_calc_energy_force             402  4.0    0.137    0.137   16.533   16.533
 force_nonbond                      201  5.0   12.977   12.977   12.977   12.977
 topology_control                     3  4.0    0.025    0.025    6.487    6.487
 connectivity_control                 3  5.0    0.005    0.005    5.777    5.777
 read_topology_psf                   96  6.0    2.586    2.586    5.740    5.740
 fist_create_force_env                2  2.0    0.000    0.000    5.320    5.320
 fist_init                            2  3.0    0.002    0.002    5.320    5.320
 md_output                          200  3.0    0.001    0.001    4.343    4.343
 md_write_output                    201  4.0    1.070    1.070    4.216    4.216
 parser_read_line                 26196  7.1    0.466    0.466    4.044    4.044
 parser_read_line_low               120  7.9    3.564    3.564    3.579    3.579
 write_trajectory                   804  5.0    0.138    0.138    3.115    3.115
 write_particle_coordinates         201  6.0    2.977    2.977    2.977    2.977
 force_intra_control                402  5.0    2.524    2.524    2.524    2.524
 mixed_create_force_env               1  2.0    0.001    0.001    2.079    2.079
 mixed_init                           1  3.0    0.000    0.000    2.078    2.078
 force_field_control                  2  4.0    0.001    0.001    0.908    0.908
 read_force_field_charmm              2  5.0    0.270    0.270    0.869    0.869
 list_control                       201  5.0    0.047    0.047    0.825    0.825
 build_fist_neighbor_lists            2  5.5    0.000    0.000    0.777    0.777
 build_neighbor_lists                 2  6.5    0.625    0.625    0.627    0.627
 -------------------------------------------------------------------------------

 The number of warnings for this run is : 1
 
 -------------------------------------------------------------------------------
  **** **** ******  **  PROGRAM ENDED AT                 2021-04-29 14:24:01.850
 ***** ** ***  *** **   PROGRAM RAN ON                   bulstake.phys.ucl.ac.uk
 **    ****   ******    PROGRAM RAN BY                                 sgiannini
 ***** **    ** ** **   PROGRAM PROCESS ID                                 12957
  **** **  *******  **  PROGRAM STOPPED IN /scratch/sgiannini/REG_TEST_MERGING/3
                                           7-071a0540f1_code_extension_V3_ADJ/ru
                                           n-fssh-0-sulf-DCVSN5
