1696
 i =        0, time =        0.000, E =         7.2954347933
  S         0.0000714182       -0.0000707208       -0.0000777887
  S        -0.0000104156       -0.0000391780       -0.0000795838
  S         0.0002574546       -0.0002156615        0.0000758737
  C         0.0003731263       -0.0001253739        0.0000140065
  C         0.0001197300       -0.0000560096        0.0001332173
  C        -0.0000072140        0.0000486825        0.0000470118
  C        -0.0002394037       -0.0001124500       -0.0000616905
  C        -0.0001874976        0.0001129286        0.0000001062
  C        -0.0000382810        0.0001413284        0.0000219007
  C        -0.0000950071        0.0001172980       -0.0000381994
  C         0.0000411504       -0.0000865774        0.0001298478
  C        -0.0000199698        0.0002279337       -0.0001969677
  C        -0.0000844839        0.0000427530        0.0001194550
  C        -0.0000060706       -0.0000108976        0.0002689922
  C         0.0003473533       -0.0000232780        0.0000650295
  N         0.0000463311       -0.0000702419        0.0001188650
  N        -0.0000384560        0.0000957503        0.0001340520
  C         0.0001055057       -0.0000329302        0.0000128952
  C        -0.0001165279        0.0001133725        0.0000819423
  C         0.0000764306        0.0000146659        0.0003155332
  C        -0.0002965372        0.0000695185       -0.0001153629
  C         0.0003548810        0.0000913227        0.0000027660
  C        -0.0005014407       -0.0001236537        0.0001592447
  C        -0.0001379509        0.0001965670       -0.0000039388
  C         0.0001530857       -0.0003238631       -0.0000897032
  N         0.0002609402        0.0001047699        0.0003809821
  N         0.0000326067        0.0000675025       -0.0001632536
  N        -0.0003819126        0.0002272931       -0.0001859024
  N        -0.0002050485        0.0000532768       -0.0000224602
  C        -0.0000569914        0.0000859843        0.0000034357
  C        -0.0001185407        0.0000874548        0.0001184135
  C         0.0001943403        0.0000171821        0.0001061684
  C         0.0002214907       -0.0001037784       -0.0000975097
  C         0.0002962107       -0.0000131466       -0.0000835254
  C        -0.0000533837       -0.0001196981        0.0001493019
  H        -0.0004518544       -0.0011250167        0.0013985774
  H        -0.0004290473        0.0000216299        0.0004322120
  H         0.0003528296        0.0001115911        0.0012188316
  H        -0.0007983137        0.0001184668        0.0006246073
  H        -0.0009707440        0.0014345952        0.0011638562
  H        -0.0001713397        0.0004143914        0.0001384254
  H        -0.0002614217       -0.0002910522       -0.0000103536
  H         0.0010217876        0.0005443887        0.0000555532
  H        -0.0003107724       -0.0002188125        0.0001869112
  H         0.0023220828        0.0006191206        0.0007309589
  H        -0.0000166409        0.0008394715       -0.0005551868
  H        -0.0012189579       -0.0005270067       -0.0010377217
  H         0.0004057634        0.0004526830        0.0001612314
  H         0.0007698134       -0.0006320214        0.0002972315
  H         0.0002556125        0.0005229296        0.0009288364
  H         0.0005490983       -0.0006342403        0.0009504578
  H        -0.0010337547       -0.0000234247       -0.0000238038
H   -0.0011526731  -0.0002584137  0.0009428844
S   -0.0001784537  -0.0000503584  -0.0001580834
S   -0.0001175816  -0.0000721222  0.0000044564
S   0.0001823496  -0.0000905672  -0.0000341925
CP   0.0003808376  -0.0001844006  0.0003000875
CP   0.0000355416  0.0000749000  0.0002489862
CP   0.0001440486  -0.0003230040  -0.0000020769
CP   -0.0000597085  0.0000490501  0.0002909845
CP   0.0000379105  0.0000362216  -0.0000185195
CP   -0.0000269785  0.0001094137  -0.0001570862
CP   0.0001886546  -0.0001722943  0.0000613485
CP   -0.0001570676  0.0001934413  -0.0000728444
CP   -0.0000411620  -0.0000670907  0.0000356159
CP   -0.0001433340  0.0000986238  0.0001787309
CP   0.0002087939  -0.0002752758  0.0000220918
CP   0.0001212411  -0.0000606126  0.0000524687
N   0.0002264521  0.0000050816  -0.0002176055
N   0.0001199329  0.0000720311  0.0002234511
CP   0.0000896313  -0.0003241986  0.0001364337
CP   0.0000142024  -0.0000635906  -0.0000414364
CP   -0.0000243959  -0.0001065216  -0.0000389823
CP   -0.0001948394  -0.0001811752  -0.0001706286
CP   -0.0000943504  -0.0001948421  0.0001809288
CP   -0.0002718894  -0.0000826449  0.0002928583
CP   -0.0000946953  -0.0000213189  -0.0002327624
CP   0.0000522602  0.0000054061  -0.0003169964
N   0.0000415888  0.0003497053  -0.0000322859
N   -0.0001771128  0.0001311420  0.0001643231
N   -0.0003076473  0.0004574087  0.0002421185
N   -0.0000492564  -0.0002642726  -0.0000618447
CP   -0.0001963508  0.0003073763  0.0002059511
CP   -0.0000526366  0.0000047371  -0.0001317143
CP   -0.0000057378  0.0002598846  0.0000202153
CP   -0.0001464006  0.0001477463  -0.0000476326
CP   0.0002074990  -0.0002948459  0.0000822512
CP   0.0003733903  0.0003184750  -0.0000627709
H   -0.0003576242  -0.0004600646  -0.0009031919
H   -0.0000206680  0.0002615586  0.0005731340
H   -0.0000718255  0.0004511602  -0.0008896021
H   0.0004636724  -0.0000939085  0.0005007333
H   0.0001505222  0.0001770407  -0.0001364717
H   0.0007300734  -0.0004607023  0.0002743801
H   -0.0007518976  -0.0005841603  0.0007432972
H   -0.0006183985  0.0007397089  -0.0006877878
H   -0.0006555874  -0.0011415475  0.0002640970
H   -0.0007271752  0.0003245270  0.0000311400
H   0.0011309806  0.0016879470  -0.0002136339
H   0.0004996774  -0.0008508989  0.0003158287
H   0.0003821574  -0.0003336728  -0.0002496871
H   -0.0002241000  -0.0008896543  -0.0004485251
H   0.0003951686  0.0001436977  -0.0008227933
H   0.0004332616  -0.0015076111  0.0004258699
H   -0.0002230093  -0.0002686147  -0.0003087725
  H         0.0014762434       -0.0003040029       -0.0008974512
  S        -0.0002124775        0.0001102800       -0.0000290055
  S        -0.0000332369       -0.0000394159        0.0001127473
  S         0.0001716380       -0.0000279858        0.0001605071
  C         0.0002870312       -0.0000242951       -0.0001216144
  C         0.0002094830        0.0000387453        0.0000333911
  C        -0.0004976336        0.0001398218       -0.0000788965
  C         0.0000468807        0.0000237458        0.0000268599
  C        -0.0004510855        0.0001250838       -0.0002520070
  C         0.0001755850       -0.0002144864       -0.0001628238
  C         0.0000626347       -0.0001023062       -0.0000044551
  C         0.0002045989        0.0001361733        0.0000118107
  C         0.0000595380        0.0000216011       -0.0002219884
  C         0.0003014300       -0.0001351833        0.0001372578
  C         0.0000880624        0.0001423701       -0.0000100468
  C        -0.0000149969       -0.0002602495        0.0000765233
  N        -0.0000150648       -0.0000887795       -0.0000451013
  N         0.0000626721        0.0001332900       -0.0000772913
  C        -0.0001301529        0.0000501654       -0.0000512472
  C         0.0001644345       -0.0000773582       -0.0000191060
  C        -0.0002019945       -0.0002530136       -0.0001636690
  C         0.0000065734       -0.0000387478       -0.0000227242
  C         0.0002188514       -0.0003609304       -0.0001538367
  C        -0.0000767687       -0.0001036040        0.0001013983
  C        -0.0001998715        0.0000344170        0.0000586680
  C         0.0000489135        0.0002416409        0.0001684473
  N         0.0003232084       -0.0000119193       -0.0003208047
  N        -0.0000583790        0.0001492492        0.0001719316
  N         0.0000040049       -0.0002138777        0.0002687922
  N        -0.0001855997       -0.0000310638        0.0001772731
  C        -0.0001715615        0.0000332113        0.0000090285
  C         0.0001137357        0.0001217021        0.0001143997
  C         0.0001725863        0.0001104887        0.0000279216
  C         0.0000738866       -0.0000567844        0.0000008004
  C         0.0000185162       -0.0000963059        0.0003978407
  C         0.0000086213       -0.0002501321       -0.0001066515
  H         0.0005961133        0.0005462524       -0.0003917770
  H         0.0006005696       -0.0001017436       -0.0001903106
  H        -0.0006187564       -0.0005133315       -0.0000302813
  H        -0.0000511455       -0.0000822882        0.0000544026
  H         0.0004869950       -0.0005826671       -0.0006367231
  H         0.0014270415        0.0013692189       -0.0002583717
  H        -0.0001159140        0.0004379654        0.0008434700
  H        -0.0000572918       -0.0000710728       -0.0000297563
  H         0.0002860131        0.0005449580       -0.0001912018
  H        -0.0012209822       -0.0004633297       -0.0007670225
  H         0.0001057471       -0.0003440136        0.0000110793
  H         0.0021385762        0.0008054815        0.0013836366
  H         0.0008986649        0.0016209196        0.0008348237
  H        -0.0014288035        0.0001716406        0.0004517489
  H         0.0004363244        0.0003252548       -0.0009124981
  H        -0.0011072508        0.0016453957       -0.0002024351
  H         0.0003664477       -0.0006468693       -0.0002468515
  H         0.0008525214       -0.0000075883       -0.0005091134
  S         0.0003035670        0.0000187324        0.0000949830
  S        -0.0000585418        0.0000608245        0.0001425761
  S         0.0000008940        0.0001352277       -0.0001081617
  C        -0.0002146226        0.0001182873        0.0000177323
  C        -0.0002543593       -0.0000013558       -0.0000736226
  C        -0.0002034613       -0.0000892831       -0.0000892777
  C         0.0002223432        0.0000064839        0.0000349772
  C         0.0000080335       -0.0000500048        0.0000028171
  C        -0.0000886184       -0.0000926432       -0.0001828667
  C        -0.0002770287       -0.0001693064       -0.0000501047
  C         0.0000862142       -0.0000392668       -0.0002162697
  C        -0.0002459546       -0.0000386118        0.0001894332
  C        -0.0000763025        0.0003528845       -0.0001221921
  C        -0.0000517967        0.0001429120        0.0002816225
  C         0.0003176026        0.0000684459       -0.0001476666
  N        -0.0001917377       -0.0001735563        0.0000124550
  N         0.0003208927        0.0000562794        0.0000915956
  C         0.0000189280        0.0001688583       -0.0000072380
  C        -0.0000788792        0.0001329481       -0.0000491026
  C        -0.0000451428       -0.0000006957        0.0001881337
  C        -0.0000432254       -0.0000230048        0.0000983302
  C         0.0003185778       -0.0000797154        0.0001178332
  C         0.0000471025        0.0001965593       -0.0000523871
  C        -0.0003031009       -0.0000664760       -0.0000063814
  C         0.0000335446        0.0002512307       -0.0001863240
  N        -0.0001031717        0.0000748484        0.0001595219
  N         0.0007060041       -0.0002716960       -0.0002926426
  N         0.0002579769       -0.0002987980        0.0000903804
  N         0.0002063126        0.0003601903        0.0000502682
  C         0.0001093921        0.0000135830        0.0000288057
  C         0.0000618434        0.0001857550       -0.0001959975
  C        -0.0002626217       -0.0000465818        0.0000099019
  C        -0.0001692293       -0.0001632025        0.0002646044
  C        -0.0000102101        0.0002304184       -0.0005122803
  C        -0.0005448997        0.0001456770        0.0001831174
  H         0.0001944503        0.0007465305        0.0004276952
  H         0.0006092993        0.0003519407       -0.0004388040
  H        -0.0004522647       -0.0006068340       -0.0004187529
  H        -0.0007463768       -0.0000428348       -0.0013023850
  H        -0.0008674806       -0.0008800524        0.0010752250
  H        -0.0017163035        0.0006644122       -0.0002030357
  H         0.0013847370        0.0017319798       -0.0010923276
  H         0.0008178108       -0.0011314408       -0.0010113610
  H        -0.0000563609        0.0014913725       -0.0001611743
  H         0.0001315231        0.0000773451        0.0005217430
  H         0.0002017782        0.0004187194        0.0004415178
  H        -0.0013656745        0.0001364648       -0.0003393798
  H        -0.0000689138        0.0006149493        0.0004987030
  H         0.0018223872        0.0013053809       -0.0000390038
  H         0.0004733156       -0.0007665605        0.0009341086
  H        -0.0005789012        0.0008463062        0.0007490443
  H         0.0005629088       -0.0005205010        0.0007506426
  H        -0.0015499581       -0.0001758900        0.0010960663
  S        -0.0000577733       -0.0001050226        0.0000386618
  S         0.0000432936        0.0001590810       -0.0000562967
  S         0.0000208669       -0.0001539245        0.0001104253
  C        -0.0001939075        0.0001429939        0.0000626928
  C         0.0001407183        0.0001029033        0.0000426263
  C        -0.0002804821        0.0001289075       -0.0000227103
  C        -0.0000057915        0.0000983619        0.0000448940
  C         0.0002338265       -0.0000564125       -0.0002027238
  C        -0.0001729755        0.0001233369       -0.0000773035
  C         0.0002598573        0.0000077323       -0.0000006066
  C        -0.0001860909       -0.0000887656        0.0002147698
  C         0.0000390804       -0.0000943840        0.0001499688
  C         0.0001488453       -0.0000347577        0.0000348896
  C         0.0000116575       -0.0001073018       -0.0000730056
  C        -0.0000760336        0.0000859254        0.0001365521
  N        -0.0003391267        0.0000221782        0.0000655074
  N         0.0003294820       -0.0001132794       -0.0000631196
  C        -0.0000791623       -0.0001479851       -0.0000857160
  C        -0.0000254219       -0.0000649916       -0.0001040663
  C        -0.0000786182        0.0000289634        0.0001178247
  C         0.0001342745        0.0000582956        0.0002642213
  C         0.0003245870       -0.0000335072        0.0001331519
  C         0.0002309241       -0.0000637499        0.0001184150
  C        -0.0000383107        0.0000099658        0.0001530321
  C         0.0001926769       -0.0000910048       -0.0001601956
  N         0.0004244201       -0.0001133501        0.0001686537
  N         0.0001137325        0.0002098854       -0.0000718693
  N        -0.0002689523        0.0003160386       -0.0001798740
  N        -0.0002324626       -0.0000462685       -0.0000927118
  C         0.0000615504       -0.0000838795       -0.0000148550
  C        -0.0001501781        0.0001642702       -0.0001123054
  C        -0.0002586605        0.0003697078        0.0001176010
  C         0.0000117176        0.0000406817       -0.0000733295
  C         0.0001726271        0.0001603470        0.0000086690
  C        -0.0000675803        0.0001462862       -0.0000653548
  H        -0.0002743868       -0.0003151155        0.0003094165
  H         0.0000237879        0.0002789390       -0.0008676483
  H        -0.0004278039        0.0002162288        0.0001391279
  H        -0.0004946103        0.0003344835       -0.0003784458
  H         0.0001686971        0.0011170089        0.0008766715
  H        -0.0006370311        0.0001188189        0.0005943366
  H         0.0009109810       -0.0006171840       -0.0013202861
  H        -0.0002528651        0.0002860462        0.0000263385
  H         0.0003150378       -0.0007277007        0.0002639707
  H         0.0003735674        0.0005056998       -0.0000074322
  H        -0.0012193735        0.0012390903       -0.0000650243
  H         0.0002854575       -0.0005306679       -0.0007865823
  H        -0.0011074368       -0.0016645483        0.0003260126
  H         0.0009406644       -0.0007424457        0.0003992112
  H         0.0001986890       -0.0001565679        0.0003751591
  H         0.0006950884       -0.0007031415       -0.0000001873
  H        -0.0003998278        0.0003627299        0.0010949245
  H        -0.0021989691       -0.0007148884        0.0010592782
  S        -0.0000734124        0.0002090632       -0.0000231002
  S        -0.0001448447        0.0001874692       -0.0001104894
  S        -0.0002574524       -0.0001763215        0.0000028072
  C        -0.0000131359       -0.0000955970       -0.0000113318
  C         0.0000447103       -0.0001140749       -0.0002595105
  C        -0.0000803922        0.0000303228        0.0001352043
  C         0.0001576768       -0.0001193962       -0.0000536805
  C        -0.0000739155        0.0002186444        0.0000707792
  C        -0.0000933762       -0.0000359034        0.0001784044
  C        -0.0000161594       -0.0000864268       -0.0001305114
  C        -0.0001384853       -0.0000965344        0.0000366309
  C         0.0000463186       -0.0000042491       -0.0000384919
  C         0.0002244072       -0.0001253790        0.0001052616
  C         0.0000856755       -0.0002406639       -0.0001243148
  C         0.0001008601        0.0004329846        0.0000640028
  N        -0.0002251744       -0.0000749770       -0.0000048705
  N        -0.0002070821        0.0000411917       -0.0000920756
  C         0.0001490315        0.0000068079       -0.0001412930
  C         0.0000687190        0.0000322533        0.0000104075
  C        -0.0000764328        0.0000019241        0.0000490872
  C        -0.0002724886       -0.0000468249       -0.0002011603
  C        -0.0000181717       -0.0000526974        0.0002481540
  C        -0.0000154394       -0.0000373651       -0.0000616682
  C        -0.0003048849       -0.0000713827       -0.0001000367
  C         0.0004907257       -0.0000419805       -0.0001991873
  N        -0.0000784007        0.0000595026        0.0000581618
  N         0.0003890198        0.0000441058       -0.0000478322
  N        -0.0002851253        0.0000145978        0.0000871363
  N        -0.0001785536       -0.0001752484        0.0002642877
  C        -0.0002332149        0.0000860756       -0.0001804985
  C        -0.0001290731       -0.0001840747        0.0000523124
  C        -0.0001302859        0.0002272292       -0.0000157000
  C        -0.0001774888        0.0000016860        0.0000543053
  C         0.0000335507       -0.0000471468        0.0001835735
  C         0.0000819394        0.0000992406        0.0000577277
  H         0.0001497846        0.0000740571       -0.0004671320
  H         0.0002480110       -0.0005092913       -0.0006614377
  H        -0.0001321460       -0.0000342655       -0.0013625337
  H        -0.0005991881       -0.0003412621       -0.0008339018
  H         0.0003047988        0.0008335484       -0.0011848395
  H         0.0006035311       -0.0000173522       -0.0003202178
  H        -0.0006612751       -0.0002681044       -0.0004644414
  H        -0.0010328981        0.0004568880       -0.0010425136
  H        -0.0003109446       -0.0005102196        0.0002655599
  H        -0.0009113912        0.0000468576       -0.0001272249
  H        -0.0001519174        0.0001873004        0.0003842977
  H         0.0005065275       -0.0003078231        0.0007297050
  H         0.0004713021       -0.0009549293        0.0000629951
  H        -0.0009231705       -0.0004863101       -0.0006783030
  H         0.0007021786        0.0004598682       -0.0007966446
  H        -0.0002191996       -0.0008317955       -0.0003352564
  H        -0.0002266836        0.0008625982       -0.0007039816
  H         0.0012825852        0.0001141050       -0.0012025728
  S        -0.0000506747       -0.0000621522       -0.0002273385
  S        -0.0000803768       -0.0000509505       -0.0001637107
  S         0.0000091225        0.0001844066       -0.0001908472
  C        -0.0004498858        0.0001724020       -0.0000437256
  C         0.0000699361       -0.0000222773       -0.0000542990
  C        -0.0003125013        0.0000179734        0.0002728582
  C        -0.0000746750       -0.0001687532       -0.0000433886
  C         0.0003450463       -0.0000619855        0.0000317619
  C        -0.0002320629        0.0000746477        0.0000507132
  C        -0.0001963582        0.0000782619        0.0002302713
  C        -0.0001050777       -0.0001948033       -0.0000689772
  C        -0.0003050599        0.0000524141        0.0000665855
  C         0.0000220975        0.0000534464        0.0001226558
  C         0.0002084796       -0.0000646657       -0.0000303782
  C         0.0001921621       -0.0000728156        0.0002628680
  N         0.0001056789        0.0000490461        0.0000402468
  N        -0.0001027232       -0.0001872107        0.0000560611
  C         0.0000508937        0.0000878813       -0.0000251037
  C        -0.0001263061       -0.0000830901       -0.0000267579
  C        -0.0000290936       -0.0002435417        0.0001595187
  C        -0.0000394362       -0.0000895384        0.0000746105
  C        -0.0003244336        0.0000616387       -0.0001907705
  C         0.0001319231       -0.0000112055        0.0000346631
  C        -0.0002401787       -0.0001678220       -0.0000294977
  C        -0.0000387559        0.0004166116       -0.0000119826
  N         0.0000320716       -0.0003926097       -0.0003309451
  N         0.0000906590       -0.0004273145        0.0000354752
  N        -0.0003644217       -0.0002893547        0.0001808097
  N         0.0000468064        0.0004006370        0.0000141972
  C         0.0000068626       -0.0002206965        0.0002507025
  C        -0.0001181429       -0.0003835395        0.0000635256
  C        -0.0000599750        0.0000127033        0.0000324652
  C         0.0000278195        0.0000520249       -0.0001473925
  C         0.0003023884        0.0001594558        0.0003031421
  C        -0.0002847997        0.0000024906       -0.0000403953
  H         0.0000279665       -0.0006803474        0.0002308218
  H        -0.0003630387        0.0002708858        0.0003146474
  H        -0.0002447840       -0.0006946782       -0.0007778887
  H        -0.0005614935        0.0000203256       -0.0004833183
  H         0.0007457410       -0.0009874612       -0.0005608902
  H         0.0017475110        0.0011021168        0.0002873403
  H        -0.0001484486       -0.0010703786       -0.0008293369
  H        -0.0004487133       -0.0017475459       -0.0000708803
  H        -0.0005017230        0.0001144274        0.0002339562
  H        -0.0004379561        0.0000241725       -0.0000437194
  H         0.0011031536       -0.0005569102        0.0005418730
  H         0.0011588909        0.0012564915        0.0010236432
  H        -0.0002025170        0.0000064898       -0.0003456964
  H         0.0006585766       -0.0001080987        0.0001605069
  H         0.0009842701       -0.0014254305       -0.0019265820
  H        -0.0009591516        0.0014190129       -0.0001781646
  H        -0.0010391904       -0.0003320657       -0.0008846480
  H         0.0017182909        0.0002519974       -0.0016231452
  S         0.0001617119       -0.0000009526       -0.0000949562
  S        -0.0002330491        0.0000178913       -0.0000356021
  S        -0.0003096567        0.0000386976        0.0000385449
  C         0.0000286695        0.0001301440       -0.0000612984
  C        -0.0002195831        0.0000932122       -0.0000074119
  C        -0.0000392004       -0.0001561982        0.0001265013
  C         0.0002614545        0.0002175264        0.0001326041
  C         0.0000115391       -0.0001441377        0.0001564491
  C         0.0002526468       -0.0000611790       -0.0000899256
  C         0.0001232423        0.0000773651       -0.0001255012
  C         0.0000997300        0.0001346485       -0.0000661303
  C        -0.0002585898        0.0000674407        0.0002691604
  C        -0.0002288261       -0.0000431642       -0.0000512966
  C        -0.0000367594        0.0000696669        0.0001578179
  C         0.0000830832       -0.0000276336       -0.0000403112
  N         0.0001769147        0.0000442530        0.0000407338
  N        -0.0001018993       -0.0002610626        0.0000593970
  C         0.0000509789        0.0000105741        0.0001024492
  C        -0.0000648983       -0.0000144410       -0.0000205781
  C         0.0002914136        0.0001144510        0.0000046374
  C        -0.0003861100        0.0001465694        0.0001412041
  C         0.0000620051       -0.0000277714        0.0001360349
  C        -0.0002345305        0.0003473510       -0.0000878891
  C        -0.0004463236        0.0000048250        0.0001635904
  C        -0.0002964619        0.0001696626       -0.0001443368
  N         0.0001111780        0.0001375881        0.0000065267
  N         0.0000031873       -0.0000001174       -0.0001340984
  N        -0.0001866881       -0.0001465985       -0.0003314671
  N        -0.0002233545        0.0001392592        0.0001624716
  C         0.0000402239       -0.0002652135       -0.0000055751
  C         0.0000597035       -0.0001508987        0.0004616796
  C        -0.0000810598       -0.0003083702        0.0001652131
  C         0.0000778825       -0.0002433141       -0.0001887053
  C        -0.0000127157        0.0003006715       -0.0001334939
  C         0.0001415026        0.0001277593       -0.0001574243
  H         0.0008922939        0.0014115348        0.0002602809
  H        -0.0003123436        0.0002636940       -0.0000180962
  H         0.0000032750       -0.0006355489        0.0011987274
  H        -0.0008178240        0.0002470891        0.0016810886
  H        -0.0003576390       -0.0011500139        0.0008145849
  H        -0.0006420607        0.0001053940        0.0003331216
  H         0.0008313271        0.0011225897       -0.0001720486
  H         0.0005836187       -0.0001960207        0.0004687243
  H         0.0000276493        0.0012811212        0.0000043552
  H         0.0007262676       -0.0001694818        0.0007199721
  H         0.0002309432        0.0001451363       -0.0002704128
  H        -0.0006026124       -0.0002286974       -0.0007678038
  H        -0.0007013949        0.0004401740        0.0001372048
  H         0.0007391179        0.0015445842        0.0006266380
  H        -0.0003925482       -0.0012718626        0.0017060621
  H         0.0008490687        0.0018748809       -0.0005762755
  H        -0.0000128450        0.0005515040        0.0009514165
  H        -0.0014804431        0.0011026822        0.0004508798
  S        -0.0000888167       -0.0001032725       -0.0001940151
  S         0.0000731506        0.0000627010        0.0001251618
  S        -0.0000337771       -0.0002273770        0.0000315860
  C        -0.0000127466       -0.0001715095       -0.0000880004
  C         0.0000616579       -0.0001060136       -0.0000845947
  C        -0.0003530484       -0.0000789210        0.0002128856
  C        -0.0001836275       -0.0000542378        0.0000034730
  C         0.0000615441       -0.0000824890        0.0000385900
  C         0.0001986430       -0.0000406110       -0.0000790864
  C         0.0001385006       -0.0000199043       -0.0001320055
  C         0.0001202240       -0.0003337486        0.0002029310
  C        -0.0000577998       -0.0000547281       -0.0001068400
  C         0.0001535023       -0.0000186137       -0.0000453367
  C        -0.0001560074       -0.0001250840        0.0001172848
  C        -0.0000909124        0.0002265675       -0.0000077273
  N         0.0000767489       -0.0000677962        0.0000542260
  N         0.0001696753       -0.0003406196       -0.0000543009
  C        -0.0000266561       -0.0000968421        0.0000132062
  C        -0.0001419421       -0.0002157319       -0.0000530620
  C        -0.0000621031        0.0000033605       -0.0002582534
  C         0.0000403718       -0.0001116929       -0.0002500774
  C         0.0001780967        0.0002645713        0.0001410343
  C        -0.0003036897       -0.0001021665       -0.0000881717
  C         0.0000194621       -0.0000065350       -0.0001291714
  C         0.0000786079       -0.0002127292       -0.0002566910
  N         0.0001008114        0.0000490342       -0.0000594000
  N        -0.0001223046        0.0002813557       -0.0000458745
  N        -0.0000324151        0.0000199729        0.0001677159
  N         0.0000419005       -0.0001365098       -0.0001989043
  C         0.0001861728        0.0000947968       -0.0002149284
  C         0.0003371147        0.0004109394        0.0000587875
  C        -0.0002726415       -0.0000917454       -0.0001737536
  C        -0.0002206273       -0.0000424280        0.0000042431
  C        -0.0000428667        0.0000819805       -0.0002202361
  C        -0.0001603076       -0.0004797141       -0.0001674555
  H        -0.0001004632        0.0003376926       -0.0000188203
  H        -0.0005218552       -0.0002768635       -0.0002295004
  H        -0.0001943019        0.0002692121        0.0011202049
  H        -0.0001418995       -0.0002000951       -0.0007500022
  H        -0.0003278161       -0.0001424890       -0.0007013936
  H         0.0001952071       -0.0002406573       -0.0002296061
  H         0.0008613160       -0.0003300867       -0.0005788193
  H         0.0002155761        0.0007010406        0.0002844330
  H        -0.0000708088       -0.0006140862       -0.0003952417
  H         0.0014719903        0.0003242103        0.0004734596
  H        -0.0005544541        0.0004854389        0.0001882045
  H        -0.0012493426       -0.0003387923       -0.0006171772
  H        -0.0007584222       -0.0004264646        0.0001230869
  H         0.0009201302       -0.0011651111        0.0005289871
  H        -0.0000280357        0.0008338259        0.0016627733
  H         0.0003290975       -0.0013163417        0.0004526629