#     Step Nr.          Time[fs]        Kin.[a.u.]          Temp[K]            Pot.[a.u.]        Cons Qty[a.u.]        UsedTime[s]
         0            0.000000         2.412123729       564.840579357         2.446232237         4.858355966         0.000000000
         1            0.100000         2.440711635       571.534932970         2.417622463         4.858334098         0.698844017
         2            0.200000         2.467926337       577.907727287         2.390387005         4.858313343         0.206596056
         3            0.300000         2.493438360       583.881809487         2.364855785         4.858294145         0.205609428
         4            0.400000         2.516943073       589.385845575         2.341333706         4.858276780         0.227975965
         5            0.500000         2.538165204       594.355375383         2.320096267         4.858261471         0.239335135
         6            0.600000         2.556862429       598.733654720         2.301385972         4.858248402         0.309291270
         7            0.700000         2.572828478       602.472381632         2.285409276         4.858237753         0.239306828
         8            0.800000         2.585895729       605.532304934         2.272333912         4.858229640         0.263983883
         9            0.900000         2.595937308       607.883714724         2.262286866         4.858224174         0.237752508
        10            1.000000         2.602868628       609.506803431         2.255352780         4.858221407         0.233476289
        11            1.100000         2.606648384       610.391898864         2.251572995         4.858221379         0.231378589
        12            1.200000         2.607278962       610.539559627         2.250945093         4.858224055         0.211220112
        13            1.300000         2.604806228       609.960526093         2.253423179         4.858229407         0.211972710
        14            1.400000         2.599318800       608.675549740         2.258918546         4.858237345         0.231686516
        15            1.500000         2.590946783       606.715096912         2.267300984         4.858247767         0.233268570
        16            1.600000         2.579859945       604.118921639         2.278400564         4.858260509         0.222490076
        17            1.700000         2.566265280       600.935495270         2.292010118         4.858275399         0.248954067
        18            1.800000         2.550404135       597.221333179         2.307888094         4.858292229         0.290488854
        19            1.900000         2.532548933       593.040228212         2.325761842         4.858310776         0.287202895
        20            2.000000         2.512999478       588.462384325         2.345331291         4.858330769         0.267574623
        21            2.100000         2.492078836       583.563453475         2.366273103         4.858351940         0.232677815
        22            2.200000         2.470128917       578.423499507         2.388245080         4.858373997         0.231827900
        23            2.300000         2.447505855       573.125917361         2.410890802         4.858396657         0.229735406
        24            2.400000         2.424575211       567.756309701         2.433844378         4.858419589         0.223246679
        25            2.500000         2.399445481       561.871747865         2.458996991         4.858442473         0.276230549
        26            2.600000         2.376976944       556.610350334         2.481488074         4.858465018         0.213749031
        27            2.700000         2.355307466       551.536066483         2.503179460         4.858486926         0.257326541
        28            2.800000         2.334790682       546.731705906         2.523717243         4.858507925         0.277160596
        29            2.900000         2.315765564       542.276644773         2.542762245         4.858527809         0.265476331
        30            3.000000         2.298553176       538.246065812         2.559993262         4.858546438         0.245655734
        31            3.100000         2.283335255       534.682525994         2.575229068         4.858564323         0.259408262
        32            3.200000         2.270608784       531.702402151         2.587969839         4.858578623         0.193794621
        33            3.300000         2.260468429       529.327862153         2.598123173         4.858591602         0.235273011
        34            3.400000         2.253119275       527.606930386         2.605482500         4.858601775         0.271046039
        35            3.500000         2.248726499       526.578285756         2.609882734         4.858609232         0.273571813
        36            3.600000         2.247412320       526.270548048         2.611201685         4.858614005         0.232682576
        37            3.700000         2.249256025       526.702283564         2.609360026         4.858616051         0.239039872
        38            3.800000         2.254293474       527.881889565         2.604321903         4.858615377         0.233372588
        39            3.900000         2.262516695       529.807499153         2.596095267         4.858611961         0.205874782
        40            4.000000         2.273873947       532.466996619         2.584731908         4.858605855         0.207781386
        41            4.100000         2.288270272       535.838145745         2.570326853         4.858597126         0.200706188
        42            4.200000         2.305568577       539.888843672         2.553017298         4.858585875         0.202067049
        43            4.300000         2.325591304       544.577512204         2.532980936         4.858572240         0.162062781
        44            4.400000         2.348122668       549.853621626         2.510433720         4.858556388         0.157418557
        45            4.500000         2.372911347       555.658320515         2.485627165         4.858538513         0.157610467
        46            4.600000         2.399673584       561.925162018         2.458845274         4.858518857         0.157733049
        47            4.700000         2.428096807       568.580952394         2.430400846         4.858497653         0.171980353
        48            4.800000         2.457843611       575.546682225         2.400631568         4.858475180         0.159315092
        49            4.900000         2.488555984       582.738516498         2.369895739         4.858451722         0.155088153
        50            5.000000         2.519859880       590.068866492         2.338567694         4.858427575         0.159334432
        51            5.100000         2.551369979       597.447502318         2.307033063         4.858403043         0.178272180
        52            5.200000         2.582694587       604.782702096         2.275683854         4.858378440         0.180111604
        53            5.300000         2.613440662       611.982428480         2.244913421         4.858354083         0.168049356
        54            5.400000         2.643218827       618.955501889         2.215111449         4.858330276         0.143655900
        55            5.500000         2.671648338       625.612764759         2.186658996         4.858307334         0.139923008
        56            5.600000         2.698361885       631.868204873         2.159923650         4.858285535         0.152978491
        57            5.700000         2.723010190       637.640032550         2.135254947         4.858265136         0.168288492
        58            5.800000         2.745266316       642.851690190         2.112980077         4.858246392         0.166731374
        59            5.900000         2.764829502       647.432749368         2.093399978         4.858229480         0.139028070
        60            6.000000         2.781428349       651.319657019         2.076786165         4.858214513         0.142336026
        61            6.100000         2.794823135       654.456278484         2.063378429         4.858201564         0.156713383
        62            6.200000         2.804807459       656.794280908         2.053383246         4.858190705         0.167120595
        63            6.300000         2.811210736       658.293719202         2.046971689         4.858182425         0.159071706
        64            6.400000         2.815237143       659.236572254         2.042940794         4.858177938         0.122823527
        65            6.500000         2.814241802       659.003495757         2.043933902         4.858175703         0.185353106
        66            6.600000         2.809550221       657.904880739         2.048625629         4.858175849         0.143334365
        67            6.700000         2.801168661       655.942193325         2.057010458         4.858179119         0.329991676
        68            6.800000         2.789150297       653.127885128         2.069035259         4.858185556         0.127971465
        69            6.900000         2.773596685       649.485737284         2.084598284         4.858194970         0.135011626
        70            7.000000         2.754655612       645.050356703         2.103551513         4.858207125         0.194953728
        71            7.100000         2.732518070       639.866467492         2.125703738         4.858221808         0.149553029
        72            7.200000         2.707415062       633.988163039         2.150823754         4.858238816         0.163723636
        73            7.300000         2.679614152       627.478098265         2.178643705         4.858257857         0.150445372
        74            7.400000         2.649415300       620.406513545         2.208863193         4.858278493         0.111488117
        75            7.500000         2.617138879       612.848430090         2.241157992         4.858296870         0.094658108
        76            7.600000         2.583068611       604.870286264         2.275251919         4.858320529         0.159039726
        77            7.700000         2.547888250       596.632195019         2.310461575         4.858349825         0.184342500
        78            7.800000         2.511634924       588.142850423         2.346740170         4.858375094         0.125133241
        79            7.900000         2.474846690       579.528247710         2.383554309         4.858400999         0.162073456
        80            8.000000         2.437933132       570.884298343         2.420493891         4.858427023         0.111646865
        81            8.100000         2.401306069       562.307436823         2.457146766         4.858452836         0.186170768
        82            8.200000         2.365373849       553.893284711         2.493104258         4.858478107         0.127279956
        83            8.300000         2.330536249       545.735456669         2.527966271         4.858502520         0.166563423
        84            8.400000         2.297179556       537.924409034         2.561346230         4.858525786         0.164625384
        85            8.500000         2.265671817       530.546325803         2.592875809         4.858547627         0.100095537
        86            8.600000         2.236358440       523.682090483         2.622209326         4.858567766         0.129199460
        87            8.700000         2.209557986       517.406299593         2.649027998         4.858585983         0.141649917
        88            8.800000         2.185558340       511.786366574         2.673043711         4.858602051         0.140131323
        89            8.900000         2.164613293       506.881720673         2.694002495         4.858615787         0.189716322
        90            9.000000         2.146939493       502.743094220         2.711687535         4.858627028         0.205606278
        91            9.100000         2.132713924       499.411930532         2.725921719         4.858635643         0.207951989
        92            9.200000         2.122071786       496.919889442         2.736569753         4.858641539         0.160508310
        93            9.300000         2.115104939       495.288481536         2.743539698         4.858644637         0.162378112
        94            9.400000         2.111860912       494.528836523         2.746784006         4.858644918         0.100247702
        95            9.500000         2.112342392       494.641583245         2.746299992         4.858642384         0.137943111
        96            9.600000         2.116507289       495.616866201         2.742129785         4.858637075         0.156801932
        97            9.700000         2.124269361       497.434489713         2.734359704         4.858629065         0.128095331
        98            9.800000         2.135499406       500.064199470         2.723119049         4.858618455         0.193102056
        99            9.900000         2.150027027       503.466093833         2.708578363         4.858605391         0.116747072
       100           10.000000         2.167642866       507.591147898         2.690947173         4.858590039         0.176935188
       101           10.100000         2.188101334       512.381852635         2.670471272         4.858572606         0.185954308
       102           10.200000         2.211123771       517.772955223         2.647429541         4.858553312         0.139288357
       103           10.300000         2.236402033       523.692298501         2.622130363         4.858532396         0.126520228
       104           10.400000         2.263602479       530.061754320         2.594907669         4.858510147         0.111120896
       105           10.500000         2.292370211       536.798217373         2.566116609         4.858486820         0.136760348
       106           10.600000         2.322333588       543.814661509         2.536129153         4.858462741         0.108052755
       107           10.700000         2.353108956       551.021247256         2.505329232         4.858438188         0.123418000
       108           10.800000         2.384305493       558.326457113         2.474107986         4.858413478         0.138394894
       109           10.900000         2.415530168       565.638255989         2.442858762         4.858388930         0.100272860
       110           11.000000         2.446392715       572.865256273         2.411972141         4.858364855         0.138171857
       111           11.100000         2.476510505       579.917859025         2.381831043         4.858341548         0.134750849
       112           11.200000         2.505513359       586.709379761         2.352805930         4.858319289         0.101340692
       113           11.300000         2.533048242       593.157149866         2.325250126         4.858298367         0.132605826
       114           11.400000         2.558783708       599.183555507         2.299495363         4.858279072         0.123506939
       115           11.500000         2.582414383       604.717087606         2.275847340         4.858261724         0.182746969
       116           11.600000         2.603548070       609.665906567         2.254698960         4.858247030         0.131417830
       117           11.700000         2.622221138       614.038529209         2.236009445         4.858230583         0.179225020
       118           11.800000         2.638026507       617.739630208         2.220196200         4.858222707         0.109427180
       119           11.900000         2.650805413       620.732032676         2.207409805         4.858215218         0.095112778
       120           12.000000         2.660442991       622.988838512         2.197766613         4.858209604         0.113095125
       121           12.100000         2.666854082       624.490106698         2.191352426         4.858206509         0.077221256
       122           12.200000         2.669993433       625.225240095         2.188212616         4.858206049         0.078447288
       123           12.300000         2.669858107       625.193551191         2.188350140         4.858208247         0.084181895
       124           12.400000         2.666487751       624.404323812         2.191725313         4.858213064         0.081273893
       125           12.500000         2.659964002       622.876674847         2.198256436         4.858220437         0.129477508
       126           12.600000         2.650409215       620.639255963         2.207821012         4.858230227         0.154690839
       127           12.700000         2.637984753       617.729852736         2.220257570         4.858242323         0.132491233
       128           12.800000         2.622888725       614.194856128         2.235367814         4.858256538         0.113982307
       129           12.900000         2.605353212       610.088611998         2.252919468         4.858272681         0.086106645
       130           13.000000         2.585641065       605.472671072         2.272649452         4.858290517         0.113508744
       131           13.100000         2.564042405       600.414970341         2.294267401         4.858309806         0.101379288
       132           13.200000         2.540870684       594.988910393         2.317459649         4.858330333         0.152891319
       133           13.300000         2.516458459       589.272364659         2.341893272         4.858351731         0.128283268
       134           13.400000         2.491153042       583.346662781         2.367220744         4.858373786         0.086174233
       135           13.500000         2.465311840       577.295497448         2.393084328         4.858396169         0.083967790
       136           13.600000         2.439297579       571.203807187         2.419121016         4.858418595         0.159706112
       137           13.700000         2.413473555       565.156664533         2.444967203         4.858440758         0.141732469
       138           13.800000         2.388198819       559.238147052         2.470263546         4.858462366         0.097732412
       139           13.900000         2.363823383       553.530216101         2.494659731         4.858483113         0.147847541
       140           14.000000         2.340683650       548.111646516         2.517819088         4.858502738         0.075611414
       141           14.100000         2.319098000       543.056992591         2.539422980         4.858520980         0.102254946
       142           14.200000         2.299362617       538.435610570         2.559174984         4.858537602         0.153484587
       143           14.300000         2.281747596       534.310748123         2.576804780         4.858552377         0.102144780
       144           14.400000         2.266493364       530.738705163         2.592071742         4.858565105         0.076020306
       145           14.500000         2.253807531       527.768097592         2.604768093         4.858575624         0.151623281
       146           14.600000         2.243862167       525.439218244         2.614721622         4.858583789         0.128242703
       147           14.700000         2.236791555       523.783511755         2.621797928         4.858589483         0.076265683
       148           14.800000         2.232690457       522.823168645         2.625902183         4.858592640         0.291192144
       149           14.900000         2.231612812       522.570819485         2.626980390         4.858593203         0.076187171
       150           15.000000         2.233570966       523.029355130         2.625020191         4.858591157         0.076501325
       151           15.100000         2.238535373       524.191857012         2.620051116         4.858586489         0.076336266
       152           15.200000         2.246434314       526.041531043         2.612144787         4.858579102         0.102743311
       153           15.300000         2.257152103       528.551287062         2.601416331         4.858568434         0.108698882
       154           15.400000         2.270636011       531.708777793         2.587919040         4.858555050         0.096686749
       155           15.500000         2.286507320       535.425319927         2.572031953         4.858539273         0.075624015
       156           15.600000         2.304666901       539.677700527         2.553855717         4.858522618         0.075342612
       157           15.700000         2.324852077       544.404409277         2.533652742         4.858504818         0.075514328
       158           15.800000         2.346779624       549.539124483         2.511706024         4.858485648         0.075392781
       159           15.900000         2.370144400       555.010391949         2.488320886         4.858465286         0.075619631
       160           16.000000         2.394621670       560.742168881         2.463822285         4.858443955         0.075479805
       161           16.100000         2.419870977       566.654731818         2.438550952         4.858421930         0.075491801
       162           16.200000         2.445540552       572.665707609         2.412858955         4.858399507         0.075508723
       163           16.300000         2.471271925       578.691154722         2.387105074         4.858376999         0.075617256
       164           16.400000         2.495948298       584.469554941         2.362406387         4.858354684         0.095580231
       165           16.500000         2.520732189       590.273132785         2.337600196         4.858332386         0.075373132
       166           16.600000         2.544532035       595.846279158         2.313778786         4.858310821         0.075570833
       167           16.700000         2.569884710       601.783047332         2.288405686         4.858290396         0.095775779
       168           16.800000         2.590685956       606.654019771         2.267585662         4.858271619         0.076013073
       169           16.900000         2.609521743       611.064745715         2.248732662         4.858254405         0.123363076
       170           17.000000         2.626114790       614.950295314         2.232124211         4.858239001         0.085531496
       171           17.100000         2.640216230       618.252391901         2.218009373         4.858225604         0.141416317
       172           17.200000         2.651608931       620.920190178         2.206605456         4.858214386         0.075321859
       173           17.300000         2.660110421       622.910961434         2.198095087         4.858205508         0.077160988
       174           17.400000         2.665575377       624.190675680         2.192623711         4.858199088         0.076905243
       175           17.500000         2.667897569       624.734457135         2.190297662         4.858195231         0.076825710
       176           17.600000         2.667011387       624.526942378         2.191182553         4.858193941         0.077016408
       177           17.700000         2.662892835       623.562512074         2.195302498         4.858195334         0.076909300
       178           17.800000         2.655559899       621.845377948         2.202639460         4.858199359         0.076778952
       179           17.900000         2.645072492       619.389569860         2.213133479         4.858205971         0.077105772
       180           18.000000         2.631531849       616.218793410         2.226683254         4.858215103         0.076910947
       181           18.100000         2.615079335       612.366152092         2.243147301         4.858226635         0.077102045
       182           18.200000         2.595894768       607.873753217         2.262345689         4.858240456         0.076981708
       183           18.300000         2.574194300       602.792212675         2.284062096         4.858256397         0.077147905
       184           18.400000         2.550227755       597.180030818         2.308046507         4.858274263         0.076665584
       185           18.500000         2.524275596       591.102882820         2.334018210         4.858293806         0.076651875
       186           18.600000         2.496645529       584.632823769         2.361669334         4.858314863         0.076578468
       187           18.700000         2.467668749       577.847408546         2.390668384         4.858337134         0.076645693
       188           18.800000         2.437695966       570.828761915         2.420664402         4.858360368         0.078842936
       189           18.900000         2.407093073       563.662564087         2.451291213         4.858384286         0.058848552
       190           19.000000         2.376236715       556.437013037         2.482171897         4.858408612         0.041513667
       191           19.100000         2.345509618       549.241730596         2.512923374         4.858432991         0.061284622
       192           19.200000         2.315295402       542.166548167         2.543161656         4.858457057         0.078507930
       193           19.300000         2.285973076       535.300217507         2.572507359         4.858480436         0.075648015
       194           19.400000         2.257911484       528.729109164         2.600591310         4.858502793         0.062931649
       195           19.500000         2.231464277       522.536037344         2.627059626         4.858523903         0.041318480
       196           19.600000         2.206965919       516.799322252         2.651577657         4.858543576         0.041242644
       197           19.700000         2.184728324       511.592003806         2.673833309         4.858561632         0.041299043
       198           19.800000         2.165037596       506.981078610         2.693540277         4.858577873         0.041300159
       199           19.900000         2.148150667       503.026711570         2.710441421         4.858592088         0.041335445
       200           20.000000         2.134292091       499.781485707         2.724311993         4.858604083         0.041245479
