#     Step Nr.          Time[fs]        Kin.[a.u.]          Temp[K]            Pot.[a.u.]        Cons Qty[a.u.]        UsedTime[s]
         0            0.000000         2.412123729       564.840579357         2.446232237         4.858355966         0.000000000
         1            0.100000         2.440711635       571.534932970         2.417622463         4.858334098         0.848314941
         2            0.200000         2.467926337       577.907727287         2.390387005         4.858313343         0.218191722
         3            0.300000         2.493438360       583.881809487         2.364855785         4.858294145         0.228297792
         4            0.400000         2.516943073       589.385845575         2.341333706         4.858276780         0.209203385
         5            0.500000         2.538165204       594.355375383         2.320096267         4.858261471         0.230504084
         6            0.600000         2.556862429       598.733654720         2.301385972         4.858248402         0.259255160
         7            0.700000         2.572828478       602.472381632         2.285409276         4.858237753         0.276842432
         8            0.800000         2.585895729       605.532304934         2.272333912         4.858229640         0.289224552
         9            0.900000         2.595937308       607.883714724         2.262286866         4.858224174         0.224845532
        10            1.000000         2.602868628       609.506803431         2.255352780         4.858221407         0.237318195
        11            1.100000         2.606648384       610.391898864         2.251572995         4.858221379         0.162186492
        12            1.200000         2.607278962       610.539559627         2.250945093         4.858224055         0.161229942
        13            1.300000         2.604806228       609.960526093         2.253423179         4.858229407         0.175061338
        14            1.400000         2.599318800       608.675549740         2.258918546         4.858237345         0.199732229
        15            1.500000         2.590946783       606.715096912         2.267300984         4.858247767         0.192318976
        16            1.600000         2.579859945       604.118921639         2.278400564         4.858260509         0.229058200
        17            1.700000         2.566265280       600.935495270         2.292010118         4.858275399         0.220221741
        18            1.800000         2.550404135       597.221333179         2.307888094         4.858292229         0.229110314
        19            1.900000         2.532548933       593.040228212         2.325761842         4.858310776         0.214006430
        20            2.000000         2.512999478       588.462384325         2.345331291         4.858330769         0.127057269
        21            2.100000         2.492078836       583.563453475         2.366273103         4.858351940         0.102838637
        22            2.200000         2.470128917       578.423499507         2.388245080         4.858373997         0.212965099
        23            2.300000         2.447505855       573.125917361         2.410890802         4.858396657         0.209406544
        24            2.400000         2.424575211       567.756309701         2.433844378         4.858419589         0.206544697
        25            2.500000         2.401707007       562.401323229         2.456735466         4.858442473         0.207284436
        26            2.600000         2.379221390       557.135926481         2.479243632         4.858465023         0.209748885
        27            2.700000         2.357528074       552.056060465         2.500958847         4.858486921         0.228935951
        28            2.800000         2.336980662       547.244527744         2.521527206         4.858507868         0.160601052
        29            2.900000         2.317917521       542.780562957         2.540610055         4.858527577         0.164589429
        30            3.000000         2.300657179       538.738754547         2.557888631         4.858545810         0.200866887
        31            3.100000         2.285494004       535.188034486         2.573068237         4.858562241         0.182175031
        32            3.200000         2.272694141       532.190724668         2.585882547         4.858576688         0.146196714
        33            3.300000         2.262491863       529.801684447         2.596097084         4.858588947         0.172497092
        34            3.400000         2.255086371       528.067560047         2.603512467         4.858598838         0.224053947
        35            3.500000         2.250639016       527.026134744         2.607967207         4.858606222         0.239945540
        36            3.600000         2.249271028       526.705796670         2.609339965         4.858610992         0.199880440
        37            3.700000         2.251061787       527.125133953         2.607551277         4.858613064         0.232872944
        38            3.800000         2.256047644       528.292658892         2.602564781         4.858612425         0.236947475
        39            3.900000         2.264221266       530.206654051         2.594387786         4.858609052         0.226056365
        40            4.000000         2.275531593       532.855163220         2.583071397         4.858602990         0.202080529
        41            4.100000         2.289884349       536.216109834         2.568709952         4.858594302         0.169756090
        42            4.200000         2.307143099       540.257545203         2.551439987         4.858583085         0.165606771
        43            4.300000         2.327130901       544.938035594         2.531438581         4.858569482         0.170524728
        44            4.400000         2.349632526       550.207181060         2.508921131         4.858553658         0.161250178
        45            4.500000         2.374397134       556.006243247         2.484138674         4.858535808         0.158213167
        46            4.600000         2.401141371       562.268869858         2.457374800         4.858516171         0.186955338
        47            4.700000         2.429552985       568.921941798         2.428941993         4.858494979         0.180035941
        48            4.800000         2.459294806       575.886504678         2.399177708         4.858472514         0.180015927
        49            4.900000         2.490008959       583.078755978         2.368440102         4.858449061         0.230762091
        50            5.000000         2.521321453       590.411119046         2.337103458         4.858424911         0.241326667
        51            5.100000         2.552846945       597.793359406         2.305553431         4.858400375         0.236414477
        52            5.200000         2.584193668       605.133737988         2.274182109         4.858375777         0.260264819
        53            5.300000         2.614968558       612.340211789         2.243382899         4.858351457         0.228124563
        54            5.400000         2.644783332       619.321858032         2.213544803         4.858328136         0.265885882
        55            5.500000         2.673279348       625.994694036         2.185034776         4.858314124         0.241605159
        56            5.600000         2.699982740       632.247756189         2.158300273         4.858283013         0.321669454
        57            5.700000         2.724755061       638.048624488         2.133486355         4.858241416         0.273989474
        58            5.800000         2.747028270       643.264282299         2.111179225         4.858207495         0.157706553
        59            5.900000         2.766723489       647.876259265         2.091457466         4.858180955         0.184808051
        60            6.000000         2.783348943       651.769397353         2.074805775         4.858154717         0.163028372
        61            6.100000         2.796843016       654.929268541         2.061297869         4.858140885         0.150823172
        62            6.200000         2.806961140       657.298602663         2.051169937         4.858131077         0.151517859
        63            6.300000         2.813542154       658.839661053         2.044581915         4.858124068         0.153627872
        64            6.400000         2.816471114       659.525527944         2.041648732         4.858119846         0.162815511
        65            6.500000         2.815677391       659.339663979         2.042441049         4.858118440         0.150659293
        66            6.600000         2.811135238       658.276040144         2.046984640         4.858119878         0.140712311
        67            6.700000         2.802864152       656.339221877         2.055259998         4.858124150         0.338407904
        68            6.800000         2.790928688       653.544326062         2.067202518         4.858131206         0.187080916
        69            6.900000         2.775437758       649.916856279         2.082703220         4.858140978         0.161987225
        70            7.000000         2.756543388       645.492412115         2.101609951         4.858153339         0.163516579
        71            7.100000         2.734438933       640.316270866         2.123729210         4.858168142         0.144818893
        72            7.200000         2.709356778       634.442849595         2.148828451         4.858185229         0.102796948
        73            7.300000         2.681565505       627.935041200         2.176638873         4.858204378         0.101459986
        74            7.400000         2.651366645       620.863454813         2.206858712         4.858225357         0.115270635
        75            7.500000         2.619091020       613.305557768         2.239156897         4.858247917         0.128817001
        76            7.600000         2.585094704       605.344731094         2.273177091         4.858271795         0.117260903
        77            7.700000         2.549754693       597.069254958         2.308541996         4.858296688         0.075540451
        78            7.800000         2.513464300       588.571230508         2.344857996         4.858322296         0.078108773
        79            7.900000         2.476628369       579.945458883         2.381719941         4.858348310         0.080448195
        80            8.000000         2.439658298       571.288275857         2.418716115         4.858374413         0.166968936
        81            8.100000         2.402967021       562.696377513         2.455433282         4.858400304         0.149523750
        82            8.200000         2.366963974       554.265639992         2.491461681         4.858425655         0.153676385
        83            8.300000         2.332050105       546.089952294         2.526400048         4.858450152         0.152359232
        84            8.400000         2.298612979       538.260069754         2.559860528         4.858473507         0.162697112
        85            8.500000         2.267022020       530.862499255         2.591473427         4.858495447         0.163840285
        86            8.600000         2.237624080       523.978462077         2.620891606         4.858515686         0.153966796
        87            8.700000         2.210739210       517.682903610         2.647794791         4.858534001         0.159738569
        88            8.800000         2.186656788       512.043587089         2.671893374         4.858550161         0.143895768
        89            8.900000         2.165632054       507.120281410         2.692931935         4.858563989         0.164583188
        90            9.000000         2.147883033       502.964040391         2.710692278         4.858575310         0.084947219
        91            9.100000         2.133587967       499.616602958         2.724996029         4.858583996         0.096509613
        92            9.200000         2.122883203       497.109896849         2.735706748         4.858589951         0.156615116
        93            9.300000         2.115861609       495.465668847         2.742731491         4.858593099         0.103008501
        94            9.400000         2.112571594       494.695255000         2.746021828         4.858593422         0.077388555
        95            9.500000         2.113016592       494.799459029         2.745574331         4.858590923         0.076317281
        96            9.600000         2.117155140       495.768571566         2.741430497         4.858585637         0.156402351
        97            9.700000         2.124901526       497.582522251         2.733676120         4.858577646         0.143584721
        98            9.800000         2.136126982       500.211157275         2.722440072         4.858567054         0.156167412
        99            9.900000         2.150661442       503.614653014         2.707892556         4.858553998         0.077499019
       100           10.000000         2.168295783       507.744039703         2.690242863         4.858538647         0.114756973
       101           10.100000         2.188784544       512.541838066         2.669736666         4.858521210         0.103245052
       102           10.200000         2.211849098       517.942803269         2.646652812         4.858501910         0.145912362
       103           10.300000         2.237181225       523.874759912         2.621299752         4.858480978         0.150526498
       104           10.400000         2.264447074       530.259531048         2.594011632         4.858458707         0.129913451
       105           10.500000         2.293291424       537.013935393         2.565143925         4.858435349         0.076630503
       106           10.600000         2.323342186       544.050842251         2.535069048         4.858411234         0.076249277
       107           10.700000         2.354215124       551.280275766         2.504171511         4.858386635         0.112655701
       108           10.800000         2.385518704       558.610551699         2.472843169         4.858361874         0.076960204
       109           10.900000         2.416859055       565.949437987         2.441478208         4.858337263         0.138599677
       110           11.000000         2.447844925       573.205316592         2.410468193         4.858313118         0.150579855
       111           11.100000         2.478092501       580.288310769         2.380197201         4.858289702         0.076317102
       112           11.200000         2.507226904       587.110636241         2.351038167         4.858265072         0.110429993
       113           11.300000         2.534927376       593.597181680         2.323340783         4.858268159         0.205288429
       114           11.400000         2.560804895       599.656851482         2.297443701         4.858248597         0.142834989
       115           11.500000         2.584578071       605.223752638         2.273652896         4.858230968         0.158774694
       116           11.600000         2.605968291       610.232643438         2.252247096         4.858215387         0.076578364
       117           11.700000         2.624729864       614.625990898         2.233472149         4.858202014         0.122556768
       118           11.800000         2.640652750       618.354610591         2.217538266         4.858191016         0.129335845
       119           11.900000         2.653565034       621.378245595         2.204617491         4.858182525         0.102879487
       120           12.000000         2.663334943       623.666039257         2.194841686         4.858176629         0.155105025
       121           12.100000         2.669872329       625.196881356         2.188301062         4.858173390         0.132936243
       122           12.200000         2.673129626       625.959633948         2.185043197         4.858172823         0.076953193
       123           12.300000         2.673102235       625.953219873         2.185072701         4.858174936         0.119124584
       124           12.400000         2.669828404       625.186595748         2.188351273         4.858179678         0.098431872
       125           12.500000         2.663388552       623.678592573         2.194798432         4.858186984         0.141952386
       126           12.600000         2.653903960       621.457611169         2.204292757         4.858196717         0.154195160
       127           12.700000         2.641535078       618.561223037         2.216673683         4.858208761         0.089565288
       128           12.800000         2.626479261       615.035642385         2.231743682         4.858222942         0.137994781
       129           12.900000         2.608967991       610.935074988         2.249271064         4.858239055         0.088948669
       130           13.000000         2.589263697       606.320973016         2.268993190         4.858256886         0.148206234
       131           13.100000         2.567656236       601.261211657         2.290619951         4.858276187         0.141998645
       132           13.200000         2.544458972       595.829170175         2.313837724         4.858296696         0.075717680
       133           13.300000         2.520004572       590.102748483         2.338313548         4.858318119         0.075805675
       134           13.400000         2.494640624       584.163340566         2.363699585         4.858340209         0.115237774
       135           13.500000         2.468724988       578.094745185         2.389637642         4.858362630         0.145804593
       136           13.600000         2.442621023       571.982049248         2.415764083         4.858385105         0.155325530
       137           13.700000         2.416692819       565.910511017         2.441714508         4.858407327         0.078268394
       138           13.800000         2.391300378       559.964430753         2.467128625         4.858429003         0.102176793
       139           13.900000         2.366794802       554.226025472         2.491655026         4.858449829         0.150362473
       140           14.000000         2.343513720       548.774356449         2.514955817         4.858469537         0.109460043
       141           14.100000         2.321776850       543.684291691         2.536711023         4.858487873         0.133873241
       142           14.200000         2.301881825       539.025526849         2.556622766         4.858504592         0.110400131
       143           14.300000         2.284100288       534.861671560         2.574419182         4.858519470         0.075438237
       144           14.400000         2.268674273       531.249402892         2.589858032         4.858532305         0.137577733
       145           14.500000         2.255813061       528.237727210         2.602729870         4.858542931         0.141234687
       146           14.600000         2.245690436       525.867338986         2.612860766         4.858551202         0.076118683
       147           14.700000         2.238442419       524.170090173         2.620114593         4.858557012         0.075334853
       148           14.800000         2.234165540       523.168584859         2.624394744         4.858560283         0.205055404
       149           14.900000         2.232915560       522.875880377         2.625645408         4.858560968         0.074576644
       150           15.000000         2.234706742       523.295316816         2.623852323         4.858559066         0.138165673
       151           15.100000         2.239511721       524.420485782         2.619042873         4.858554594         0.148227233
       152           15.200000         2.247261890       526.235322217         2.611285727         4.858547617         0.074131457
       153           15.300000         2.257848330       528.714320685         2.600689893         4.858538223         0.119679915
       154           15.400000         2.271123240       531.822871007         2.587403303         4.858526543         0.126922287
       155           15.500000         2.286901935       535.517725870         2.571610789         4.858512724         0.113903685
       156           15.600000         2.304965324       539.747581453         2.553531627         4.858496951         0.100492129
       157           15.700000         2.325062796       544.453752898         2.533416622         4.858479418         0.140343165
       158           15.800000         2.346915538       549.570951152         2.511544838         4.858460376         0.084375467
       159           15.900000         2.370220184       555.028138082         2.488219895         4.858440080         0.125354247
       160           16.000000         2.394652885       560.749478368         2.463765901         4.858418786         0.076875485
       161           16.100000         2.419873585       566.655342352         2.438523189         4.858396773         0.074451480
       162           16.200000         2.445530515       572.663357388         2.412843826         4.858374342         0.074317651
       163           16.300000         2.471264860       578.689500118         2.387086934         4.858351794         0.074746903
       164           16.400000         2.496715422       584.649190445         2.361613990         4.858329412         0.074516557
       165           16.500000         2.521523482       590.458427702         2.336784012         4.858307494         0.074923072
       166           16.600000         2.545337541       596.034902423         2.312948789         4.858286331         0.074673804
       167           16.700000         2.567817901       601.299068176         2.290448318         4.858266219         0.074545875
       168           16.800000         2.588641161       606.175195480         2.269606236         4.858247397         0.074554129
       169           16.900000         2.607504530       610.592380369         2.250725607         4.858230137         0.074888619
       170           17.000000         2.624129861       614.485489642         2.234084820         4.858214681         0.086884268
       171           17.100000         2.638267357       617.796029504         2.219933865         4.858201223         0.122549690
       172           17.200000         2.649698883       620.472919439         2.208491067         4.858189950         0.138876425
       173           17.300000         2.658240899       622.473180596         2.199940108         4.858181007         0.109108008
       174           17.400000         2.663746971       623.762522608         2.194427553         4.858174524         0.074066002
       175           17.500000         2.666109708       624.315798627         2.192060886         4.858170594         0.100529581
       176           17.600000         2.665262339       624.117372404         2.192906935         4.858169274         0.086576559
       177           17.700000         2.661179686       623.161348531         2.196990915         4.858170601         0.099431187
       178           17.800000         2.653878546       621.451659861         2.204296007         4.858174552         0.086705025
       179           17.900000         2.643417679       619.002066642         2.214763413         4.858181092         0.086319756
       180           18.000000         2.629897219       615.836016548         2.228292938         4.858190157         0.149617886
       181           18.100000         2.613457461       611.986362325         2.244744162         4.858201623         0.135213945
       182           18.200000         2.594277207       607.494973327         2.263938171         4.858215377         0.110813975
       183           18.300000         2.572571638       602.412238281         2.285659611         4.858231250         0.072790755
       184           18.400000         2.548589641       596.796437893         2.309659404         4.858249045         0.099248059
       185           18.500000         2.522610761       590.713032860         2.335657780         4.858268541         0.074439067
       186           18.600000         2.494941761       584.233857042         2.363347745         4.858289507         0.074053017
       187           18.700000         2.465912798       577.436222080         2.392398871         4.858311669         0.074506247
       188           18.800000         2.435873370       570.401969431         2.422461390         4.858334760         0.074434901
       189           18.900000         2.405187885       563.216431350         2.453170613         4.858358499         0.074442089
       190           19.000000         2.374231134       555.967371407         2.484151477         4.858382611         0.074221427
       191           19.100000         2.343383668       548.743902589         2.515023097         4.858406765         0.074394232
       192           19.200000         2.313026992       541.635360749         2.545403683         4.858430675         0.074252803
       193           19.300000         2.283538769       534.730182259         2.574915277         4.858454046         0.074471075
       194           19.400000         2.255288148       528.114809579         2.603188438         4.858476585         0.074110286
       195           19.500000         2.228631125       521.872605823         2.629866893         4.858498019         0.074569417
       196           19.600000         2.203906071       516.082805676         2.654611997         4.858518068         0.074138410
       197           19.700000         2.181429485       510.819523617         2.677107007         4.858536492         0.074134389
       198           19.800000         2.161492029       506.150822727         2.697061027         4.858553057         0.073831005
       199           19.900000         2.144354836       502.137852018         2.714212725         4.858567561         0.074108643
       200           20.000000         2.130246260       498.834084389         2.728333561         4.858579821         0.073922418
